/*--------------------------------*- C++ -*----------------------------------*\
| =========                 |                                                 |
| \\      /  F ield         | foam-extend: Open Source CFD                    |
|  \\    /   O peration     | Version:     3.2                                |
|   \\  /    A nd           | Web:         http://www.foam-extend.org         |
|    \\/     M anipulation  | For copyright notice see file Copyright         |
\*---------------------------------------------------------------------------*/
FoamFile
{
    version     2.0;
    format      ascii;
    class       volScalarField;
    location    "0.12";
    object      alpha;
}
// * * * * * * * * * * * * * * * * * * * * * * * * * * * * * * * * * * * * * //

dimensions      [0 0 0 0 0 0 0];

internalField   nonuniform List<scalar> 
18000
(
0.7183280778
0.7462401235
0.7734833202
0.7967938696
0.815663635
0.8307948213
0.8429567307
0.8528176228
0.8609019248
0.8676055802
0.8732244829
0.877980466
0.8820414063
0.8855358708
0.8885635701
0.8912027959
0.8935157449
0.8955523715
0.8973532122
0.8989514804
0.9003746402
0.9016456004
0.9027836287
0.9038050584
0.9047238375
0.9055519609
0.9062998124
0.9069764392
0.9075897748
0.9081468211
0.9086537992
0.9091162715
0.9095392355
0.9099271745
0.9102840381
0.9106130973
0.910916589
0.911195035
0.9114459982
0.9116731396
0.6747383689
0.6789679986
0.6828659684
0.6860744395
0.6886118931
0.6906282488
0.692247179
0.6935646173
0.694653133
0.6955665962
0.6963449851
0.6970181736
0.6976087326
0.6981339102
0.6986070148
0.6990383901
0.699436111
0.6998064915
0.7001544648
0.7004838728
0.7007976925
0.7010982154
0.7013871911
0.7016659433
0.7019354645
0.7021964923
0.7024495717
0.7026951067
0.7029334013
0.7031646949
0.703389191
0.7036070846
0.7038185891
0.7040239704
0.704223596
0.704418013
0.7046080756
0.7047951596
0.7049808531
0.705180606
0.6623720892
0.6639748273
0.6652859057
0.6662900481
0.6670298837
0.6675747289
0.6679694304
0.6682482283
0.6684372023
0.6685563729
0.6686213162
0.6686441772
0.6686345616
0.6686001389
0.6685470612
0.6684802756
0.6684037611
0.6683207126
0.6682336862
0.6681447158
0.6680554068
0.6679670136
0.6678805021
0.6677966031
0.667715855
0.6676386409
0.667565219
0.6674957481
0.6674303096
0.6673689263
0.6673115784
0.6672582184
0.6672087856
0.6671632224
0.6671214954
0.6670836277
0.6670497442
0.6670202142
0.6669933212
0.6669805052
0.6536920208
0.6548247098
0.65567302
0.6562868186
0.6567214427
0.6570299671
0.6572412397
0.6573764743
0.6574517766
0.6574797914
0.6574706442
0.6574325288
0.6573721217
0.6572948794
0.657205262
0.6571069075
0.6570027716
0.6568952435
0.6567862429
0.6566772997
0.6565696205
0.6564641443
0.6563615896
0.6562624937
0.6561672461
0.6560761166
0.6559892787
0.6559068298
0.6558288082
0.6557552071
0.6556859872
0.6556210869
0.6555604312
0.6555039387
0.6554515254
0.6554031096
0.6553585726
0.6553179078
0.6552782211
0.65524703
0.6468138056
0.6478296704
0.6485757084
0.6491024015
0.6494712439
0.6497307221
0.6499058649
0.650014899
0.6500716691
0.650087219
0.6500705463
0.6500290528
0.6499688408
0.6498949285
0.6498114216
0.6497216562
0.6496283199
0.6495335549
0.6494390474
0.6493461033
0.6492557133
0.6491686087
0.6490853088
0.6490061616
0.6489313778
0.6488610604
0.6487952288
0.6487338396
0.6486768038
0.648624001
0.6485752919
0.6485305285
0.6484895632
0.648452257
0.6484184838
0.6483881439
0.6483610911
0.6483373938
0.648314372
0.6482990563
0.6408274289
0.6417700886
0.6424769287
0.6429711261
0.6433128268
0.643547182
0.6436982539
0.6437840234
0.6438183796
0.6438126039
0.6437760033
0.6437162915
0.6436398399
0.6435518695
0.6434566152
0.6433574697
0.6432571123
0.6431576218
0.6430605758
0.6429671373
0.6428781289
0.6427940978
0.6427153704
0.6426420996
0.6425743043
0.6425119028
0.6424547399
0.6424026103
0.6423552763
0.6423124831
0.6422739696
0.6422394774
0.6422087557
0.6421815655
0.6421576766
0.6421368847
0.6421189167
0.6421038543
0.6420895975
0.64208476
0.6354821189
0.6363475115
0.6370195245
0.6374860951
0.6378013724
0.6380070891
0.6381271357
0.6381801585
0.6381809466
0.6381417389
0.6380727307
0.6379823973
0.6378777148
0.6377643482
0.6376468224
0.6375286846
0.6374126525
0.6373007488
0.6371944215
0.637094648
0.6370020272
0.6369168573
0.6368392027
0.6367689505
0.6367058577
0.6366495894
0.6365997508
0.636555912
0.6365176281
0.6364844539
0.6364559559
0.6364317196
0.6364113546
0.6363944995
0.6363808168
0.6363700208
0.6363617736
0.6363562613
0.636352046
0.6363597047
0.6306253375
0.6314025069
0.6320312063
0.632463398
0.632744419
0.6329123621
0.6329911964
0.6330006179
0.6329567283
0.6328730899
0.6327610868
0.6326301837
0.6324881211
0.632341103
0.6321939863
0.6320504693
0.6319132706
0.631784295
0.6316647819
0.631555436
0.6314565405
0.6313680542
0.6312896928
0.631220997
0.6311613881
0.6311102127
0.6310667785
0.6310303814
0.6310003263
0.6309759417
0.6309565902
0.6309416744
0.6309306401
0.6309229789
0.6309182237
0.6309159897
0.6309158904
0.6309182928
0.6309227163
0.630942502
0.6261746862
0.626857101
0.6274343358
0.6278248356
0.6280638133
0.6281857658
0.6282149297
0.6281723201
0.6280756452
0.6279400537
0.6277783327
0.6276010931
0.6274169368
0.6272326485
0.6270534093
0.6268830214
0.6267241279
0.6265784193
0.6264468194
0.626329649
0.6262267671
0.6261376898
0.6260616896
0.6259978763
0.6259452617
0.6259028103
0.6258694786
0.6258442438
0.625826124
0.6258141924
0.6258075856
0.6258055079
0.6258072323
0.6258121023
0.6258195256
0.6258290267
0.6258401856
0.6258535581
0.6258695798
0.6259044178
0.6220700484
0.6226562261
0.6231766936
0.6235199283
0.6237107295
0.6237802883
0.6237533451
0.6236525033
0.6234973514
0.6233048633
0.6230894178
0.6228629021
0.6226348477
0.6224126289
0.6222017086
0.6220059092
0.621827686
0.6216683853
0.6215284783
0.6214077661
0.621305554
0.6212207976
0.6211522213
0.6210984134
0.6210579001
0.6210292015
0.6210108729
0.6210015336
0.6209998859
0.6210047266
0.6210149523
0.6210295602
0.6210476461
0.6210684041
0.6210911204
0.6211152375
0.6211403285
0.6211671795
0.6211972135
0.6212495609
0.6182640887
0.6187567794
0.6192182594
0.6195107973
0.6196491823
0.6196617892
0.6195741786
0.6194108521
0.6191935711
0.618941382
0.6186704454
0.6183940489
0.6181227081
0.6178643746
0.6176247229
0.6174074822
0.6172147771
0.6170474518
0.6169053648
0.616787643
0.6166928974
0.6166193991
0.6165652195
0.6165283396
0.6165067321
0.6164984215
0.6165015254
0.6165142816
0.6165350634
0.616562387
0.6165949116
0.6166314361
0.6166708921
0.6167123402
0.6167549613
0.6167981292
0.6168414168
0.6168858192
0.6169336388
0.6170067023
0.6147151259
0.6151198581
0.615522438
0.6157624897
0.6158456216
0.6157980152
0.6156464406
0.6154176568
0.6151359205
0.6148226161
0.6144958851
0.6141705377
0.6138581148
0.6135671092
0.6133033062
0.6130701922
0.6128693828
0.6127010306
0.6125641938
0.6124571523
0.6123776694
0.6123232021
0.6122910639
0.6122785472
0.612283012
0.6123019467
0.6123330071
0.6123740386
0.6124230852
0.6124783903
0.61253839
0.6126017029
0.6126671171
0.6127335823
0.6128001974
0.6128662906
0.6129314544
0.612996887
0.6130656763
0.6131619749
0.6113858002
0.6117096048
0.6120548098
0.6122416098
0.6122674949
0.6121571531
0.6119390178
0.6116425137
0.6112947487
0.610919734
0.6105378025
0.6101654089
0.6098151457
0.6094959833
0.6092136797
0.6089712897
0.6087697024
0.6086081561
0.608484697
0.6083965684
0.608340526
0.6083130843
0.6083107017
0.6083299139
0.6083674253
0.6084201668
0.6084853284
0.6085603729
0.6086430354
0.6087313141
0.6088234545
0.6089179307
0.6090134245
0.6091088104
0.6092031395
0.6092957205
0.6093861773
0.6094758749
0.609568506
0.6096899394
0.6082429332
0.6084933486
0.6087833835
0.608916629
0.6088836141
0.6087082707
0.6084212024
0.6080549544
0.607639877
0.607202921
0.6067668343
0.6063498343
0.6059655716
0.6056233953
0.6053288532
0.6050843309
0.6048897301
0.6047431152
0.6046412836
0.6045802383
0.6045555637
0.6045627087
0.6045971916
0.6046547401
0.60473138
0.6048234851
0.6049277973
0.6050414273
0.6051618409
0.6052868364
0.6054145168
0.6055432604
0.6056716903
0.6057986517
0.6059231898
0.6060446297
0.6061626467
0.60627874
0.6063970151
0.6065443438
0.605257987
0.605442411
0.6056796402
0.6057591078
0.6056655438
0.6054228733
0.605064422
0.604626356
0.6041426948
0.6036436677
0.6031546731
0.6026958034
0.6022817467
0.6019220873
0.6016219258
0.601382685
0.6012029685
0.6010793705
0.6010071775
0.6009809396
0.6009949081
0.6010433551
0.6011207934
0.6012221154
0.601342672
0.601478307
0.6016253587
0.601780642
0.6019414163
0.6021053459
0.602270458
0.6024350998
0.6025978974
0.6027577233
0.6029136672
0.6030651109
0.6032118001
0.6033553268
0.6034999857
0.603672845
0.6024072756
0.6025326081
0.6027192612
0.6027446002
0.602588668
0.6022761285
0.6018436228
0.6013314818
0.6007778588
0.6002166265
0.5996760803
0.5991782892
0.5987389232
0.5983676033
0.5980686798
0.5978422553
0.5976852703
0.5975925132
0.5975574779
0.5975730427
0.5976319736
0.5977272744
0.5978524126
0.5980014484
0.5981690932
0.598350719
0.5985423345
0.5987405411
0.5989424775
0.5991457605
0.599348424
0.5995488625
0.5997457767
0.5999381315
0.600125118
0.60030622
0.600481278
0.6006519397
0.6008224719
0.6010193315
0.599671815
0.5997443145
0.5998823675
0.5998530351
0.5996327024
0.5992475077
0.5987380384
0.5981493777
0.5975243141
0.5969007564
0.5963101526
0.595776634
0.595316751
0.5949398957
0.5946492879
0.5944432806
0.5943167287
0.5942622422
0.5942712237
0.5943346648
0.5944437113
0.5945900357
0.5947660555
0.5949650392
0.5951811314
0.5954093264
0.5956454091
0.595885878
0.5961278616
0.5963690345
0.5966075366
0.5968418997
0.5970709806
0.5972939081
0.5975100359
0.5977189979
0.5979207549
0.5981169776
0.5983117061
0.59853004
0.5970368635
0.5970621349
0.597153304
0.5970685917
0.5967816565
0.5963208328
0.5957313199
0.5950635838
0.5943655878
0.593679695
0.5930407693
0.5924750658
0.5919998582
0.591623962
0.5913489993
0.5911710637
0.5910824436
0.5910731645
0.5911322315
0.5912485467
0.5914115303
0.5916114987
0.591839859
0.5920891731
0.5923531346
0.5926264927
0.5929049477
0.5931850342
0.593464003
0.5937397095
0.5940105111
0.5942751763
0.5945328048
0.5947827637
0.5950246318
0.5952582421
0.5954837038
0.5957026914
0.5959188663
0.5961553763
0.5944913004
0.594474352
0.5945201477
0.5943792564
0.5940234368
0.5934839263
0.5928112338
0.5920618793
0.5912895769
0.5905415885
0.5898564602
0.5892626011
0.5887777804
0.5884097957
0.5881581037
0.5880159451
0.5879725032
0.5880147872
0.5881291006
0.58830208
0.5885213557
0.5887759143
0.5890562454
0.5893543413
0.5896636072
0.5899787208
0.5902954712
0.5906105936
0.5909216137
0.5912267047
0.5915245617
0.591814294
0.5920953325
0.5923673565
0.5926302301
0.5928840319
0.5931290506
0.5933669624
0.5936009728
0.5938519263
0.592026967
0.5919722974
0.5919741024
0.5917762361
0.5913492792
0.5907280632
0.5899691332
0.5891357725
0.5882880568
0.5874786147
0.5867499402
0.586132585
0.5856445028
0.5852919219
0.5850714572
0.5849728161
0.5849814859
0.5850810122
0.5852547105
0.5854868174
0.5857631655
0.5860715011
0.5864015516
0.5867449347
0.5870949798
0.587446507
0.5877955983
0.5881393776
0.5884758121
0.5888035378
0.5891217112
0.5894298855
0.5897279072
0.5900158362
0.5902938763
0.5905623935
0.5908218896
0.5910740688
0.5913217111
0.5915833588
0.5896380505
0.5895497399
0.5895088915
0.5892533518
0.5887531444
0.5880473691
0.5871993583
0.5862799023
0.5853560819
0.5844863805
0.5837175
0.5830820715
0.5825978233
0.5822687404
0.582087802
0.5820404154
0.5821077383
0.5822694053
0.5825054934
0.5827977637
0.5831303165
0.5834898222
0.583865472
0.5842487656
0.584633219
0.5850140466
0.5853878536
0.5857523563
0.586106138
0.5864484438
0.5867790111
0.5870979327
0.5874055462
0.58770235
0.5879889315
0.5882659798
0.5885342466
0.5887955283
0.5890523569
0.5893214474
0.5873205461
0.5872023428
0.5871202072
0.5868064793
0.5862311501
0.5854382443
0.5844986523
0.5834914459
0.5824913812
0.5815633034
0.5807583702
0.5801111655
0.5796386693
0.5793418124
0.579209023
0.5792205605
0.5793525896
0.5795804067
0.5798806563
0.5802326286
0.5806188455
0.5810251519
0.5814405058
0.5818566075
0.5822674685
0.5826689808
0.5830585217
0.5834346104
0.5837966199
0.5841445428
0.5844788055
0.5848001223
0.5851093819
0.5854075639
0.5856956703
0.58597474
0.5862458181
0.5865109075
0.5867726596
0.5870470468
0.5850718079
0.5849272025
0.5848052382
0.5844330639
0.5837810729
0.5828988528
0.581865637
0.5807695771
0.5796937993
0.5787100307
0.5778741155
0.5772223894
0.5767704319
0.5765151626
0.5764394195
0.5765173955
0.5767195886
0.577016573
0.577381448
0.577791139
0.578226846
0.5786739349
0.5791215112
0.5795618535
0.5799898174
0.5804022773
0.5807976388
0.5811754307
0.5815359774
0.5818801415
0.5822091267
0.5825243303
0.582827232
0.5831193168
0.5834020161
0.5836767361
0.5839448683
0.5842088012
0.584471908
0.5847512542
0.5828901808
0.5827224686
0.5825622764
0.5821317123
0.5814019253
0.5804286829
0.5793003551
0.5781149902
0.576964797
0.5759289145
0.5750680815
0.5744200976
0.5739983475
0.5737946268
0.5737850246
0.5739366922
0.5742138019
0.5745818931
0.5750105147
0.5754744537
0.575953963
0.5764343741
0.5769053977
0.5773603189
0.5777952135
0.5782082523
0.5785991187
0.5789685427
0.5793179394
0.5796491382
0.5799641829
0.5802651894
0.5805542447
0.5808333421
0.5811043404
0.5813690227
0.5816291939
0.5818878866
0.5821500771
0.5824366435
0.5807747047
0.580587035
0.5803903941
0.5799018555
0.5790936023
0.5780281764
0.5768038804
0.5755294873
0.5743070133
0.5732235463
0.5723448977
0.571709946
0.571328932
0.5711872546
0.5712529827
0.5714852168
0.5718411879
0.5722811905
0.5727713523
0.5732846889
0.5738010056
0.5743061439
0.5747909443
0.5752501644
0.575681489
0.5760846916
0.5764609633
0.5768123976
0.5771416085
0.5774514564
0.5777448569
0.5780246523
0.5782935282
0.5785539677
0.5788082391
0.5790585058
0.5793070727
0.5795579694
0.5798189733
0.5801184808
0.5787248778
0.5785202915
0.5782891828
0.5777434724
0.576856588
0.5756984165
0.5743779844
0.5730156218
0.5717238829
0.5705983432
0.5697100315
0.569098412
0.5687694671
0.568700765
0.568850985
0.5691701607
0.5696080434
0.5701196086
0.5706678529
0.5712245424
0.5717696626
0.5722902009
0.5727787057
0.5732318933
0.573649439
0.5740330008
0.5743854723
0.5747104344
0.5750117684
0.575293394
0.5755590976
0.5758124277
0.5760566358
0.5762946575
0.5765291395
0.5767626269
0.5769980373
0.5772408558
0.5775032006
0.5778257282
0.5767404679
0.5765219238
0.5762585415
0.5756568641
0.5746917138
0.5734408665
0.5720248534
0.5705763903
0.5692192995
0.5680581816
0.5671693891
0.5665923609
0.5663275335
0.5663430524
0.5665867603
0.5669986326
0.5675205188
0.5681021714
0.5687039295
0.5692969955
0.5698622878
0.5703886526
0.5708709572
0.571308359
0.5717028781
0.5720582974
0.5723793602
0.5726712115
0.5729390259
0.5731877733
0.57342208
0.5736461557
0.573863766
0.5740782475
0.5742925854
0.5745097108
0.5747332989
0.5749708636
0.5752407489
0.5756016153
0.5748213643
0.5745917562
0.5742985074
0.57364247
0.5725999576
0.57125715
0.5697468472
0.5682149666
0.5667973217
0.5656080719
0.5647289566
0.5641986537
0.5640105872
0.5641217388
0.5644676151
0.5649772061
0.5655841937
0.5662334063
0.5668832012
0.567505069
0.5680817245
0.5686046403
0.5690716199
0.5694847166
0.5698486006
0.5701693629
0.5704536874
0.5707083091
0.5709396801
0.5711537791
0.5713560165
0.5715512007
0.5717435479
0.5719367358
0.5721340458
0.5723388083
0.5725556384
0.5727947679
0.5730829742
0.5735035264
0.5729674619
0.572729627
0.5724091211
0.5717007209
0.5705822801
0.569148868
0.567546293
0.5659344705
0.5644619147
0.5632528691
0.5623944796
0.5619237948
0.5618255783
0.5620437713
0.5625000237
0.56311152
0.5638037067
0.56451702
0.5652087239
0.5658516065
0.5664311317
0.5669421911
0.5673861177
0.5677682605
0.5680961777
0.568378383
0.5686235308
0.5688399238
0.5690352395
0.5692163997
0.5693895285
0.5695599631
0.5697323025
0.5699105062
0.5700981139
0.5702988819
0.570518589
0.5707709818
0.5710937449
0.5716019571
0.5711785731
0.5709352925
0.570590321
0.5698319205
0.5686394917
0.5671174469
0.5654253125
0.5637377709
0.5622167251
0.5609970201
0.5601711801
0.5597736188
0.5597786114
0.560115064
0.5606892656
0.5614059284
0.5621824351
0.5629556177
0.5636827497
0.5643390647
0.564913786
0.5654060054
0.5658211219
0.5661681013
0.5664575438
0.566700426
0.5669073445
0.5670881054
0.5672515341
0.5674054182
0.5675565223
0.5677106458
0.5678727099
0.5680469037
0.5682369975
0.5684472188
0.5686847724
0.5689678071
0.569347558
0.5699783272
0.5694543617
0.5692083553
0.5688418641
0.5680361549
0.5667721471
0.5651640151
0.563385678
0.5616273184
0.5600648902
0.558844345
0.5580635105
0.5577530186
0.5578746508
0.5583401888
0.5590391151
0.5598632034
0.5607222228
0.5615504603
0.5623065059
0.562969295
0.5635328369
0.5640011544
0.5643841603
0.5646946571
0.5649463493
0.5651526427
0.565325996
0.5654776253
0.5656174164
0.5657539467
0.56589456
0.5660454655
0.5662118617
0.5663981301
0.5666082582
0.5668470086
0.5671233085
0.5674606504
0.5679264985
0.5687215231
0.5677942971
0.5675482135
0.5671632678
0.5663132252
0.564980464
0.5632893061
0.5614286968
0.5596050093
0.5580088782
0.556797855
0.5560749485
0.5558657175
0.5561172742
0.5567221183
0.5575515845
0.558484293
0.5594231582
0.5603012589
0.5610799883
0.561743307
0.5622910071
0.5627326807
0.5630830841
0.5633589618
0.5635770894
0.563753202
0.5639015023
0.5640345099
0.5641630876
0.5642965456
0.5644427682
0.5646083479
0.5647987378
0.565018494
0.5652718239
0.565564105
0.5659063014
0.566328195
0.566916024
0.5679231712
0.5661976243
0.5659540269
0.5655537713
0.5646626005
0.5632642659
0.5614935867
0.5595551223
0.557672079
0.5560503636
0.5548596084
0.5542078343
0.5541140899
0.5545084794
0.555262027
0.5562267308
0.5572681392
0.5582834064
0.5592060075
0.5600017701
0.5606610178
0.5611902418
0.5616051105
0.5619254124
0.5621718172
0.562364049
0.5625200181
0.5626555323
0.562784312
0.562918136
0.5630670201
0.5632393854
0.5634422125
0.5636812142
0.5639611237
0.5642863847
0.5646630775
0.5651045127
0.5656476442
0.5663997037
0.5676718167
0.5646633484
0.5644246997
0.5640123144
0.5630833907
0.5616229455
0.5597766085
0.5577650926
0.5558290259
0.5541901367
0.5530306062
0.5524632539
0.5524990341
0.5530485512
0.5539591573
0.5550625286
0.5562115644
0.5572991022
0.5582608632
0.5590688344
0.5597209975
0.5602313261
0.5606219072
0.560917595
0.5611428465
0.5613201341
0.5614693537
0.5616077758
0.5617502403
0.5619094155
0.562096037
0.5623190989
0.5625860108
0.5629027774
0.5632743294
0.5637053719
0.5642027706
0.5647824562
0.5654892947
0.5664532147
0.5680463776
0.5631902307
0.5629588752
0.5625375308
0.5615743362
0.5600554477
0.5581375825
0.556058095
0.5540755657
0.5524280481
0.5513107297
0.5508409719
0.5510199018
0.551735991
0.5528107556
0.554054819
0.5553092328
0.5564643117
0.5574600809
0.5582764446
0.5589202309
0.5594135002
0.5597849099
0.5600642533
0.5602795259
0.5604556886
0.5606144156
0.5607743133
0.5609512936
0.5611589322
0.5614087449
0.5617103763
0.56207174
0.5624991886
0.5629978834
0.5635728151
0.5642316954
0.5649932757
0.5659108524
0.5671380744
0.5691094329
0.5617767955
0.5615549423
0.5611277551
0.5601338131
0.5585602712
0.556575175
0.5544329558
0.5524106163
0.5507629909
0.5496987211
0.549339414
0.549674487
0.5505675139
0.5518120832
0.5531973383
0.5545536934
0.5557710717
0.5567960163
0.5576180692
0.5582539242
0.5587341143
0.5590938139
0.5593674752
0.5595862893
0.5597774063
0.5599640736
0.5601661352
0.560400571
0.5606819297
0.5610226117
0.5614330283
0.5619216992
0.5624953975
0.5631595529
0.5639194534
0.5647836768
0.5657738877
0.5669520408
0.5684957415
0.570901049
0.5604213444
0.560211052
0.5597810403
0.5587598517
0.5571354865
0.5550875244
0.5528878548
0.5508323115
0.5491929165
0.5481922069
0.5479557019
0.5484590743
0.5495381158
0.550956505
0.5524818304
0.5539355085
0.5552095125
0.5562592067
0.5570853801
0.5577153857
0.5581883667
0.5585457553
0.5588262428
0.5590638023
0.5592874555
0.5595218363
0.5597879657
0.5601039337
0.5604853712
0.5609457063
0.5614962607
0.5621462804
0.5629030386
0.5637722645
0.5647595324
0.5658742491
0.5671409486
0.5686301397
0.5705428075
0.5734339159
0.5591219778
0.5589251408
0.5584951853
0.5574501672
0.5557787688
0.5536722752
0.5514203628
0.5493380437
0.5477148863
0.5467877627
0.546685737
0.5473685467
0.5486412066
0.5502356529
0.5518982417
0.5534434692
0.5547680675
0.555838539
0.5566683421
0.557296009
0.5577691683
0.5581350555
0.5584360662
0.558708495
0.5589829203
0.5592852055
0.5596375295
0.5600591754
0.5605670016
0.5611756321
0.5618974583
0.5627425774
0.5637188366
0.5648322804
0.5660887247
0.5674983015
0.5690882201
0.5709371037
0.5732679912
0.5766905214
0.5578766214
0.55769496
0.5572677695
0.5562021996
0.5544874435
0.5523266294
0.5500274987
0.5479245309
0.5463251535
0.5454810164
0.5455243311
0.5463965475
0.5478688074
0.549639661
0.5514349928
0.5530648922
0.5544337673
0.555521506
0.5563554029
0.5569853803
0.557467167
0.5578531734
0.5581888795
0.5585124212
0.5588556371
0.5592454994
0.5597053644
0.5602558238
0.56091513
0.5616992815
0.562621898
0.5636940431
0.5649241958
0.5663187059
0.5678835483
0.5696294057
0.5715858261
0.5738388084
0.576631512
0.580622909
0.5566830569
0.5565181105
0.5560961936
0.5550131618
0.5532585413
0.5510474101
0.5487058052
0.5465879068
0.5450192735
0.5442667852
0.5444653769
0.5455356897
0.5472118005
0.5491574605
0.5510793175
0.5527859871
0.5541926088
0.5552945476
0.5561337852
0.5567715196
0.5572709478
0.5576888877
0.5580732308
0.5584634781
0.5588924641
0.5593881864
0.55997523
0.5606756291
0.5615092025
0.5624934946
0.5636434953
0.5649713272
0.5664861306
0.5681945199
0.5701025062
0.5722210864
0.574581693
0.5772767356
0.5805671454
0.585155252
0.5555389541
0.555392079
0.5549777233
0.5538800926
0.5520888619
0.5498311372
0.5474514374
0.5453238281
0.5437922349
0.5431392386
0.5435020506
0.5447778016
0.5466602217
0.5487771209
0.5508176511
0.5525922773
0.5540299829
0.5551434621
0.5559898729
0.5566412484
0.5571674076
0.5576287068
0.5580747584
0.5585459783
0.559075972
0.5596937149
0.5604250923
0.56129372
0.5623211438
0.5635266025
0.5649265673
0.5665342768
0.5683595269
0.5704091212
0.5726889476
0.5752100349
0.5780051689
0.5811720721
0.5849868831
0.590189075
0.5544419053
0.5543142771
0.5539095363
0.5527999131
0.5509750419
0.5486741084
0.5462602618
0.5441275943
0.5426386078
0.5420920816
0.5426270364
0.5441141975
0.5462035784
0.5484862197
0.5506360494
0.552469053
0.5539311383
0.5550538651
0.5559096669
0.5565806635
0.5571422767
0.5576574752
0.5581769158
0.5587415228
0.5593854924
0.5601387596
0.5610285922
0.5620803166
0.5633173413
0.5647607114
0.5664284475
0.5683349175
0.5704905257
0.5729021531
0.5755753762
0.5785209484
0.5817724503
0.5854317871
0.589787699
0.5956105898
0.5533894593
0.5532820792
0.5528887689
0.551769484
0.5499136249
0.5475724852
0.5451279597
0.5429942752
0.5415526996
0.5411187464
0.5418327611
0.5435359573
0.5458311766
0.5482722193
0.5505206126
0.5524018271
0.5538816514
0.5550116657
0.5558792797
0.556575678
0.5571807428
0.5577591174
0.5583618697
0.5590300832
0.5597984101
0.5606977507
0.561756837
0.5630028148
0.5644610544
0.5661544729
0.568102658
0.5703210701
0.5728206293
0.5756081464
0.5786886754
0.5820723847
0.5857931147
0.5899558879
0.5948595515
0.6012993392
0.5523791543
0.5522928606
0.5519125615
0.5507856623
0.5489011313
0.5465223784
0.5440501333
0.5419188391
0.5405287125
0.5402125852
0.5411116268
0.5430342018
0.5455324375
0.5481228297
0.5504578909
0.5523767696
0.5538678738
0.5550035278
0.5558854298
0.5566125823
0.5572681176
0.5579174446
0.5586114778
0.5593911762
0.5602915588
0.5613445144
0.5625803131
0.5640280004
0.5657149649
0.5676660095
0.5699022512
0.5724401518
0.5752910065
0.5784613719
0.5819555513
0.5857828343
0.5899768556
0.5946448473
0.6000935347
0.6071371302
0.5514085501
0.5513440327
0.550978102
0.549845355
0.5479341253
0.5455199308
0.5430224064
0.5408962779
0.5395608958
0.539367054
0.5404562309
0.5426003476
0.5452971879
0.5480263366
0.5504352481
0.5523810906
0.5538773253
0.5550172799
0.5559158944
0.5566785745
0.5573904788
0.5581169402
0.5589082408
0.5598050034
0.5608425665
0.5620538435
0.5634707042
0.5651241416
0.5670435728
0.5692556465
0.5717829132
0.5746426877
0.577846449
0.5814002777
0.5853074859
0.589576223
0.5942395634
0.5994062865
0.605389211
0.6130162335
0.5504752572
0.5504330765
0.5500826661
0.5489455685
0.5470092762
0.5445613943
0.5420405198
0.539921722
0.5386436848
0.5385758789
0.5398595613
0.5422263297
0.5451159083
0.5479718795
0.5504411627
0.5524033531
0.5538990104
0.5550422475
0.555959885
0.5567622129
0.5575352301
0.5583434484
0.5592361364
0.5602534414
0.5614310137
0.5628028367
0.5644024259
0.5662627362
0.5684151782
0.5708881508
0.5737054834
0.576885137
0.5804385316
0.5843710159
0.588684669
0.5933862948
0.5985082119
0.6041604088
0.6106606356
0.6188461533
0.5495769641
0.5495575718
0.5492236523
0.5480834532
0.5461234144
0.543643198
0.5411004154
0.5389905431
0.5377718227
0.537833199
0.5393151601
0.5419047824
0.5449799289
0.547949665
0.5504654548
0.552433698
0.553923639
0.5550694851
0.5560083195
0.5568537563
0.5576915309
0.5585847068
0.559581262
0.5607207987
0.5620393067
0.563571891
0.5653537433
0.5674197636
0.5698032752
0.5725342795
0.5756376723
0.579131799
0.5830277347
0.5873298246
0.5920387017
0.5971597216
0.6027244625
0.6088441642
0.6158410468
0.6245586338
0.5487114611
0.5487152239
0.5483986139
0.5472563413
0.5452735784
0.5427620079
0.5401983084
0.53809844
0.536940461
0.5371336801
0.5388172495
0.541629172
0.5448815664
0.5479511119
0.5504994317
0.5524639775
0.5539437465
0.555091901
0.5560539763
0.5569453701
0.5578505686
0.5588306902
0.5599322475
0.5611942924
0.5626532129
0.5643452921
0.5663074142
0.5685763772
0.5711872971
0.5741715813
0.5775549307
0.5813557743
0.5855845423
0.5902443321
0.595334203
0.6008581115
0.6068471542
0.6134142146
0.6208861077
0.6301105728
0.547876662
0.5479038864
0.5476052846
0.5464617794
0.5444570547
0.5419147753
0.5393307462
0.5372415069
0.5361452365
0.536472598
0.5383608178
0.5413938802
0.5448142012
0.5479689266
0.550535953
0.552487797
0.5539537144
0.5551042742
0.5560915315
0.5570311995
0.5580056721
0.5590737602
0.5602804327
0.5616642433
0.5632620625
0.5651114119
0.567250872
0.5697190688
0.5725527576
0.5757845217
0.5794405808
0.5835391455
0.5880897396
0.5930940551
0.5985495832
0.6044591
0.61085367
0.6178484243
0.6257751993
0.6354844761
0.5470706226
0.5471215804
0.5468416008
0.5456975537
0.5436714093
0.5410987749
0.5384946529
0.5364162843
0.5353823239
0.5358458899
0.5379416665
0.5411942383
0.544772299
0.547997116
0.5505694242
0.5525004767
0.5539497047
0.55510318
0.5561174923
0.5571073197
0.5581522778
0.5593086383
0.5606198339
0.5621240201
0.5638586562
0.5658625663
0.5681760241
0.5708393992
0.5738909192
0.5773641078
0.5812854357
0.5856726479
0.5905341953
0.5958703311
0.601677114
0.6079564626
0.614739926
0.622145501
0.6305104463
0.6406865249
0.546291557
0.5463665107
0.5461057187
0.5449617104
0.5429145112
0.5403116333
0.5376873618
0.5356197921
0.5346484672
0.5352501778
0.5375564208
0.5410265208
0.5447513853
0.548030947
0.5505957312
0.5524989491
0.5539295256
0.5550868413
0.5561300479
0.557171589
0.5582877785
0.5595322368
0.5609469415
0.5625697887
0.5644389497
0.5665946225
0.5690787736
0.5719334376
0.5751981645
0.5789072239
0.5830871426
0.5877550574
0.5929182976
0.5985757456
0.604722221
0.6113591096
0.6185188924
0.6263228896
0.6351138773
0.6457429504
0.5455378515
0.5456370797
0.5453960284
0.5442525711
0.5421845504
0.5395513485
0.536906636
0.5348495485
0.5339409902
0.5346827668
0.5372025111
0.5408879027
0.5447479814
0.5480668683
0.5506121312
0.5524816093
0.5538924502
0.5550549303
0.5561288641
0.5572234349
0.5584112898
0.5597433913
0.5612604022
0.563000128
0.5650015919
0.5673064515
0.5699583866
0.5730010549
0.5764752408
0.5804158571
0.5848494072
0.5897923917
0.5952510526
0.601223
0.6077019806
0.6146890845
0.6222180104
0.6304135667
0.6396235975
0.6506956578
0.5448080768
0.5449318987
0.5447111646
0.5435687433
0.5414800497
0.5388163035
0.5361506806
0.5341035769
0.533257793
0.5341416232
0.536878131
0.5407763938
0.5447595184
0.548102407
0.5506171192
0.5524481415
0.5538390112
0.5550083463
0.5561148488
0.5572636025
0.5585233693
0.5599425359
0.561560635
0.5634155753
0.565547392
0.5679993156
0.5708168097
0.5740451903
0.5777264963
0.5818963078
0.586581143
0.5917969143
0.5975488285
0.6038332833
0.6106430364
0.6179789924
0.6258761351
0.6344625146
0.6440898187
0.6555978877
0.5441009991
0.5442497974
0.544050015
0.5429091294
0.5407998736
0.538105274
0.5354181486
0.533380405
0.5325973367
0.5336253399
0.5365821807
0.5406907567
0.544784237
0.5481360568
0.5506102844
0.5523993365
0.5537707913
0.5549489906
0.5560899132
0.5572938935
0.5586257212
0.5601313586
0.5618494277
0.5638181552
0.566078778
0.5686762655
0.5716580181
0.5750711648
0.5789591569
0.5833583922
0.588295523
0.5937859404
0.5998338304
0.6064343681
0.6135793163
0.6212693679
0.6295405944
0.638523496
0.6485713478
0.6605104364
0.5434155898
0.5435898325
0.5434117278
0.5422729323
0.540143234
0.5374174347
0.5347081437
0.5326790597
0.5319586231
0.5331330941
0.5363142033
0.5406304203
0.5448210894
0.5481671693
0.5505921731
0.5523369205
0.5536902291
0.5548795577
0.5560567486
0.5573169196
0.5587209134
0.5603124715
0.5621295496
0.5642109347
0.5665992995
0.5693415975
0.5724874396
0.5760860667
0.5801826392
0.5848146203
0.5900089476
0.5957805319
0.6021324978
0.6090587274
0.6165499152
0.6246063872
0.6332647806
0.6426565312
0.6531328927
0.6654987297
0.5427510345
0.5429512958
0.5427957172
0.5416596612
0.5395096959
0.5367523635
0.5340202222
0.531999061
0.5313411727
0.5326646038
0.5360743212
0.5405953972
0.5448696508
0.5481958621
0.5505641698
0.5522634072
0.5536004535
0.5548033612
0.5560186389
0.5573358914
0.5588121309
0.5604891197
0.5624044147
0.5645976402
0.5671132056
0.570000402
0.573311467
0.5770982016
0.5814078902
0.5862793655
0.5917400003
0.5978042296
0.6044740375
0.6117419219
0.6195974131
0.6280401951
0.6371065415
0.6469263339
0.6578434145
0.6706309184
0.5421067408
0.5423337202
0.5422016687
0.5410691357
0.5388991823
0.5361100477
0.533354397
0.53134042
0.530745007
0.532220088
0.5358631791
0.5405862101
0.5449300499
0.5482229503
0.5505284074
0.552181986
0.5535051628
0.5547242072
0.5559793235
0.5573544606
0.5589029892
0.5606649592
0.562677822