/*--------------------------------*- C++ -*----------------------------------*\
| =========                 |                                                 |
| \\      /  F ield         | foam-extend: Open Source CFD                    |
|  \\    /   O peration     | Version:     3.2                                |
|   \\  /    A nd           | Web:         http://www.foam-extend.org         |
|    \\/     M anipulation  | For copyright notice see file Copyright         |
\*---------------------------------------------------------------------------*/
FoamFile
{
    version     2.0;
    format      ascii;
    class       volScalarField;
    location    "0.12";
    object      epsHat;
}
// * * * * * * * * * * * * * * * * * * * * * * * * * * * * * * * * * * * * * //

dimensions      [0 0 -1 0 0 0 0];

internalField   nonuniform List<scalar> 
18000
(
437.8752049
437.1260119
436.608915
436.2483937
436.0376571
435.9564025
435.9839674
436.0970923
436.2736116
436.4943773
436.7438048
437.0097095
437.2828525
437.5564155
437.8255054
438.0867251
438.33782
438.5773942
438.8046872
439.0194003
439.2215642
439.4114373
439.5894311
439.7560535
439.9118685
440.0574664
440.1934423
440.320382
440.4388513
440.5493896
440.6525051
440.748673
440.8383348
440.9219007
440.9997567
441.0722796
441.1398651
441.2029605
441.2618565
441.310227
97.81508551
102.5189812
107.976904
113.7816197
119.7506901
125.8184682
131.8123229
137.8370312
143.8764283
149.9104288
155.9182914
161.8788072
167.7708878
173.5741584
179.2694498
184.8391803
190.2676324
195.5411395
200.648192
205.5794728
210.3278323
214.8882102
219.2575143
223.4344657
227.4194208
231.2141802
234.8217917
238.2463575
241.4928497
244.5669383
247.4748391
250.2231809
252.8189024
255.2691839
257.5814331
259.763345
261.8230546
263.7694328
265.6152282
267.4689952
49.16117769
51.13901632
53.21521895
55.34903067
57.52335892
59.73749621
61.98460139
64.25994893
66.55976777
68.87926772
71.20719617
73.54518342
75.89185449
78.24330622
80.59534702
82.94364644
85.28377941
87.61126226
89.92159295
92.21029708
94.47297867
96.70537274
98.90339707
101.0632005
103.1812059
105.2541464
107.2790941
109.2534817
111.1751161
113.0421852
114.8532585
116.6072811
118.303561
119.9417487
121.5218045
123.0439527
124.5086793
125.9176681
127.2847973
128.7649383
33.03035784
34.08555785
35.1288482
36.16060513
37.18875905
38.21827791
39.24752304
40.27495655
41.29913679
42.31878756
43.33274673
44.33990893
45.33921117
46.32958205
47.3098419
48.27884676
49.2358617
50.18023121
51.11116566
52.02780287
52.9292552
53.8146338
54.68306599
55.53371038
56.36577058
57.17850767
57.97125085
58.74340639
59.49446461
60.22400489
60.93169891
61.61731225
62.28070447
62.92182828
63.54073055
64.13757918
64.71286988
65.26897204
65.81972198
66.45331619
25.62245886
26.26703001
26.8969316
27.50887673
28.11146368
28.70863255
29.2997352
29.88381328
30.45986517
31.02702975
31.58460089
32.13201495
32.66883654
33.19473839
33.70947703
34.21286835
34.70476624
35.18504625
35.65359466
36.11030256
36.55506397
36.98777717
37.40834813
37.81669526
38.21275425
38.59648222
38.96786044
39.32689591
39.6736222
40.00809971
40.33041551
40.64068228
40.93903653
41.22563693
41.50066986
41.76440279
42.01746794
42.26229009
42.50911963
42.80287223
21.63234191
22.06245111
22.49461836
22.91679948
23.33343302
23.74616078
24.15398871
24.55577498
24.95044367
25.33711655
25.71511544
26.08394234
26.44325283
26.79282737
27.13254308
27.46234822
27.78224105
28.0922536
28.39244025
28.68287034
28.96362392
29.2347898
29.49646488
29.74875446
29.99177281
30.22564383
30.45050156
30.66649053
30.87376568
31.072492
31.2628439
31.44500422
31.61916354
31.78552257
31.94430858
32.09585314
32.24089089
32.38170258
32.52580398
32.6988687
19.29022088
19.59803567
19.92579668
20.25395124
20.58232651
20.91022258
21.23584987
21.55760502
21.87413592
22.18438366
22.4875478
22.78304445
23.07046498
23.34953873
23.62010113
23.88206729
24.13541129
24.38015054
24.61633467
24.8440377
25.06335286
25.27438923
25.4772694
25.67212797
25.85911041
26.03837205
26.2100772
26.37439826
26.53151472
26.68161211
26.82488094
26.96151578
27.09171563
27.21568969
27.33368257
27.44606726
27.55364181
27.65858069
27.76700653
27.89681393
17.85007174
18.08487503
18.35486697
18.63505781
18.92123046
19.21059363
19.50044469
19.78862775
20.07343522
20.35355893
20.6280141
20.89607329
21.15720952
21.41104973
21.65733789
21.89590676
22.12665703
22.34954214
22.56455745
22.77173241
22.97112489
23.16281692
23.34691127
23.52352875
23.69280579
23.85489237
24.00995006
24.15815028
24.29967257
24.43470305
24.56343308
24.68605857
24.80278164
24.91382013
25.01944134
25.12006971
25.21659078
25.31122057
25.40960619
25.52668426
16.9421015
17.13300581
17.37156319
17.62884213
17.89730578
18.17236684
18.45042004
18.72874824
19.00527558
19.27843515
19.54704954
19.81023807
20.06734388
20.31787846
20.56148071
20.79788735
21.02691197
21.24843014
21.46236896
21.66869918
21.86742927
22.05860041
22.24228235
22.41856963
22.58757824
22.74944257
22.90431263
23.05235153
23.1937332
23.32864033
23.45726285
23.57979755
23.69645118
23.80745402
23.91310297
24.0138872
24.11081651
24.20629239
24.3060707
24.42441694
16.3618912
16.52706922
16.75019615
16.99931906
17.26420526
17.53873294
17.81844847
18.10009395
18.38123383
18.66004969
18.93517922
19.20559642
19.47052132
19.72935477
19.98163295
20.22699672
20.4651711
20.6959513
20.91919291
21.13480429
21.3427405
21.5429978
21.73560872
21.92063753
22.09817601
22.2683395
22.43126344
22.58710011
22.73601581
22.87818845
23.01380584
23.14306578
23.26618093
23.38339725
23.49504819
23.6017038
23.70454078
23.80627418
23.91316734
24.04006882
15.9871857
16.13834627
16.35622383
16.6063409
16.87624236
17.15848026
17.447817
17.74048605
18.03371202
18.32544169
18.61414322
18.89865925
19.1780988
19.45176169
19.71908849
19.97962893
20.23302217
20.47898432
20.71729964
20.94781366
21.17042704
21.38508983
21.5917959
21.79057757
21.98150061
22.16465951
22.34017325
22.50818148
22.66884116
22.82232384
22.96881391
23.10850938
23.24162894
23.36843621
23.48930749
23.60490993
23.71662914
23.82760515
23.94490699
24.08478069
15.74119595
15.88593221
16.10514172
16.36205446
16.64232502
16.93733367
17.24111753
17.549435
17.8591949
18.16813025
18.47455874
18.77720833
19.07509062
19.36741468
19.65353273
19.93290803
20.20509673
20.46973722
20.72654299
20.97529661
21.21584388
21.44808778
21.67198232
21.88752642
22.09475805
22.29374877
22.48459873
22.66743233
22.84239434
23.00964701
23.1693684
23.32175411
23.46702715
23.60546931
23.73750526
23.86391654
23.98634237
24.1084578
24.23840418
24.39447358
15.57470722
15.71787501
15.94263166
16.21000541
16.50398028
16.81487212
17.13603979
17.46279707
17.79176157
18.12047488
18.44712462
18.77034135
19.08905248
19.40238558
19.70961015
20.01010602
20.30334757
20.58889579
20.86639307
21.13555847
21.3961821
21.64811886
21.8912816
22.12563413
22.35118451
22.56797872
22.77609503
22.97563897
23.1667392
23.34954433
23.52422167
23.69096023
23.84998416
24.00159279
24.14626457
24.28491441
24.4194845
24.55430192
24.69884702
24.87405891
15.45630232
15.60091814
15.83384389
16.11393786
16.42365308
16.75231151
17.09262868
17.43949969
17.78927432
18.13932522
18.4877303
18.8330394
19.17410774
19.50998851
19.83987179
20.16305472
20.47892926
20.7869777
21.08677011
21.37796081
21.66028315
21.93354277
22.19760991
22.4524114
22.69792293
22.93416178
23.16118043
23.37906096
23.58791058
23.78785842
23.97905485
24.16167623
24.33594288
24.50216978
24.66089467
24.81318783
24.96135218
25.11050099
25.2717487
25.46931264
15.36636822
15.51423587
15.75689132
16.05104195
16.37769701
16.72522929
17.08573585
17.45371516
17.82527138
18.19763026
18.56878013
18.93720587
19.30170067
19.66124818
20.01495993
20.36204884
20.70182203
21.03368081
21.35712106
21.67173117
21.97718687
22.2732438
22.55972858
22.83652955
23.10358769
23.36088833
23.60845382
23.84633743
24.07461853
24.29339951
24.50280597
24.70299379
24.89417279
25.07667062
25.25109017
25.41868277
25.58218034
25.74763935
25.92814722
26.15190418
15.29307282
15.44522663
15.69848991
16.00744476
16.35171267
16.71874509
17.10003892
17.48971543
17.88365477
18.27895795
18.67354361
19.06584658
19.45460651
19.83874025
20.21727941
20.58934948
20.95416926
21.31105644
21.65943129
21.99881587
22.32882863
22.64917572
22.95964043
23.26007209
23.55037542
23.8305009
24.10043645
24.36020067
24.60983778
24.84941484
25.07902314
25.29878834
25.50890123
25.70969781
25.90185238
26.08682725
26.26786382
26.45214664
26.6551315
26.90981157
15.22956066
15.38656973
15.65090082
15.97504718
16.33728063
16.72414944
17.12656483
17.53828944
17.95500124
18.3736993
18.79225277
19.20906078
19.62281665
20.03237134
20.43667367
20.83475743
21.2257496
21.60888233
21.9835003
22.34906088
22.70512784
23.05136074
23.38750198
23.71336336
24.02881336
24.33376582
24.62817044
24.91200527
25.18527149
25.44799117
25.70021018
25.94201228
26.17355878
26.3951883
26.60765296
26.81266014
27.01405378
27.22036081
27.44986296
27.74127809
15.17201967
15.33418519
15.60980062
15.94931463
16.32967744
16.73654693
17.16026171
17.59424462
18.03399446
18.4764323
18.91939876
19.36127152
19.80070377
20.23648026
20.66746315
21.09259026
21.51089407
21.92152122
22.3237435
22.7169584
23.10068112
23.47453096
23.8382152
24.19151253
24.53425762
24.8663277
25.18763162
25.49810153
25.79768748
26.0863559
26.36409469
26.63093216
26.88698755
27.13259462
27.36858955
27.59696231
27.82226415
28.0546074
28.31561939
28.6508
15.11840385
15.28587865
15.57285893
15.92779637
16.32634172
16.75327251
17.19836774
17.6547305
18.11770501
18.58415999
19.05192958
19.51938439
19.985143
20.4479228
20.9064951
21.35969817
21.80646926
22.24587251
22.6771134
23.09953878
23.51262596
23.915965
24.30923818
24.69219939
25.06465524
25.42644905
25.77744803
26.11753407
26.44659818
26.76454003
27.07127566
27.36676252
27.651063
27.9244965
28.18798852
28.44385122
28.69745701
28.96077047
29.25933813
29.64661095
15.0676366
15.2404925
15.53884305
15.90919029
16.3259035
16.77288865
17.23937876
17.7181788
18.20450501
18.69520124
19.18811851
19.68163501
20.17433977
20.66488101
21.15193526
21.63423906
22.1106365
22.58011632
23.04182916
23.49508596
23.93934258
24.37417651
24.79926054
25.21433693
25.6191942
26.01364779
26.39752504
26.77065476
27.13286172
27.48396737
27.823801
28.15223196
28.46924879
28.77514456
29.07093736
29.35930104
29.64654737
29.94677473
30.29005836
30.73904649
15.01914456
15.19740762
15.50709047
15.89279043
16.32761024
16.79459228
17.28243822
17.78367831
18.29342944
18.80854001
19.32690261
19.8469179
20.36714986
20.88617536
21.4025727
21.9149766
22.42214365
22.92299909
23.4166561
23.90241087
24.37972097
24.84817457
25.30745674
25.75731699
26.19754067
26.62792545
27.04826361
27.4583302
27.85787752
28.24663747
28.62433682
28.99073795
29.34573613
29.68958322
30.02338989
30.35022783
30.67746395
31.02161199
31.41789155
31.93941059
14.97260202
15.15626995
15.47721877
15.87818293
16.33101078
16.81788867
17.32700257
17.85063307
18.38382829
18.92347249
19.46752571
20.0144261
20.56271637
21.11089944
21.65745275
22.20091149
22.73995458
23.27346128
23.80053124
24.32047429
24.83278026
25.33707862
25.83309544
26.32061273
26.79943302
27.26935094
27.73013202
28.18149925
28.62312757
29.05464824
29.47566894
29.88582459
30.28489521
30.67307306
31.0515564
31.42384364
31.7984609
32.19459878
32.6532002
33.25902136
14.92779999
15.11685026
15.44897701
15.86509032
16.33579405
16.84242566
17.37267191
17.91859038
18.47519275
19.03943215
19.60936296
20.18347565
20.76029452
21.33824536
21.91570293
22.49110794
23.06307602
23.63046398
24.19238902
24.7482107
25.29748964
25.83993501
26.37534993
26.90358074
27.4244734
27.93783888
28.44342794
28.94091563
29.42989593
29.90988849
30.38036448
30.84080894
31.29086177
31.7306328
32.16139606
32.58709344
33.01749152
33.47467403
34.00579397
34.70825026
14.8845836
15.07897736
15.42217506
15.85329799
16.34171332
16.86791643
17.41911202
17.98716262
18.56707733
19.15591261
19.75184485
20.35343109
20.95917876
21.56743249
22.17646334
22.78462541
23.39049013
23.99292177
24.59109352
25.18445878
25.77269553
26.3556389
26.93321244
27.50536525
28.07201849
28.6330234
29.18813121
29.73697524
30.27906562
30.81379905
31.34049126
31.85845245
32.36715379
32.86659437
33.35810292
33.84606432
34.34153164
34.86962398
35.48403379
36.29545891
14.84282427
15.04250858
15.39665279
15.84262248
16.3485542
16.89410755
17.4660229
18.05599665
18.65907047
19.27243978
19.89443113
20.52368138
21.15868078
21.79768759
22.43886865
23.08050209
23.72113906
24.35968759
24.9954227
25.62794355
26.25709995
26.88290667
27.50545789
28.12484981
28.74111546
29.35417396
29.96379462
30.5695762
31.17094183
31.76715224
32.35734605
32.94062979
33.51627226
34.08412631
34.64554257
35.20532582
35.77581402
36.38520015
37.0938193
38.02583182
14.80240848
15.00731795
15.37226798
15.83289955
16.356123
16.9207681
17.51312881
18.12476512
18.7507873
19.38856639
20.03660734
20.69363853
21.35813033
22.02824766
22.7020529
23.37776137
24.05393257
24.72956077
25.40407583
26.07728193
26.74926226
27.42027144
28.09063017
28.76063074
29.43045827
30.10012955
30.76945035
31.43799134
32.10508324
32.76983418
33.43117909
34.08798614
34.73928093
35.38472529
36.02564444
36.66721243
37.32299187
38.02415796
38.83750233
39.90017841
14.76323371
14.97329198
15.34889236
15.82398053
16.36424383
16.94768754
17.5601772
18.19316659
18.84187133
19.50387536
20.17789005
20.86274495
21.55688467
22.25837156
22.96516303
23.67542705
24.38776454
25.10130442
25.81569081
26.5309986
27.24761172
27.96608987
28.68704002
29.41100242
30.1383559
30.86924478
31.60352813
32.34075171
33.08014348
33.82063594
34.56092599
35.29959988
36.03538927
36.76770824
37.49779195
38.23110177
38.9822982
39.78529815
40.71283
41.91384223
14.72520712
14.9403285
15.32641064
15.81573191
16.37275867
16.97467655
17.60694053
18.26092855
18.93199873
19.61798566
20.31783455
21.03048301
21.7543402
22.48735363
23.22737454
23.97254101
24.72153251
25.47366629
26.22886573
26.98754709
27.75046643
28.51855652
29.29277201
30.07395315
30.86271299
31.65935048
32.46379025
33.27554996
34.09373615
34.91707259
35.74397255
36.57268444
37.40158209
38.22976025
39.05827977
39.89277388
40.74880505
41.66263671
42.71206783
44.05589867
14.68824528
14.90833628
15.30472045
15.80803562
16.38152826
17.00156859
17.65321852
18.32781057
19.02088267
19.73055801
20.45604213
21.19638422
21.94994357
22.71453686
23.48790686
24.2681808
25.05415757
25.84540099
26.6421829
27.4453347
28.25605763
29.07572568
29.90570123
30.74717383
31.60102698
32.4677353
33.34729334
34.23917734
35.14234176
36.0552547
36.97598496
37.90237134
38.83234961
39.76460636
40.69992299
41.64395636
42.61290995
43.64485553
44.82148024
46.30883577
14.65227394
14.87723491
15.28373238
15.80078937
16.39043277
17.02822097
17.6988399
18.39360681
19.10827673
19.8412995
20.59216619
21.36003696
22.14320121
22.93932448
23.74603721
24.56147625
25.38460403
26.21529283
27.05423475
27.90275097
28.76255975
29.63554148
30.52352173
31.4280826
32.35040661
33.29115564
34.250387
35.2275086
36.22127629
37.22983817
38.25083916
39.28161782
40.31957309
41.36287639
42.41190448
43.47216141
44.56017828
45.71518552
47.02133835
48.6488823
14.61722777
14.84695452
15.2633698
15.79390663
16.39937201
17.05451547
17.74366338
18.45814754
19.19397724
19.9499669
20.72591674
21.52109239
22.33368701
23.16118966
24.00111279
24.85162469
25.71189841
26.58217909
27.46365161
28.35819974
29.26812637
30.19587706
31.14378811
32.113868
33.10761588
34.1258799
35.16875822
36.23554673
37.32473746
38.43407399
39.5606774
40.70127521
41.85261213
43.01222051
44.17993138
45.36090088
46.57164367
47.85183891
49.28657454
51.04706732
14.58305001
14.81743529
15.24356838
15.7873163
16.40826525
17.08035823
17.78757782
18.52129968
19.27782428
20.05636843
20.85706319
21.67926862
22.52104797
23.37968308
24.25256101
25.13790472
26.03514756
26.94497333
27.86913083
28.8101345
29.77093189
30.75458287
31.76397076
32.80155181
33.86914577
34.9677707
36.09752681
37.25753537
38.44593917
39.65997182
40.89611
42.15034062
43.41862082
44.69770804
45.98673888
47.29032262
48.62461295
50.0290343
51.58810823
53.4709728
14.5496919
14.78862688
15.22427555
15.78096205
16.41705053
17.10567913
17.83050167
18.58296645
19.35970172
20.16036432
20.98543568
21.83435294
22.70500782
23.59443845
24.49989763
25.41968811
26.35355556
27.3026884
28.26946672
29.25709612
30.26921805
31.30954309
32.38152389
33.48807104
34.63131317
35.81240519
37.03139242
38.28713987
39.57733586
40.89857928
42.24656428
43.61639318
45.00309278
46.40250654
47.81293263
49.23825035
50.69394354
52.21855836
53.89474344
55.88700079
14.51711206
14.76048768
15.20544957
15.77480142
16.42568368
17.13043073
17.87238184
18.64308618
19.43953611
20.261866
21.11092481
21.98620236
22.88536856
23.80517572
24.74273275
25.69644974
26.66643898
27.65445825
28.66358028
29.69775176
30.76134371
31.85873845
32.99396428
34.17037651
35.39038437
36.65522969
37.96482874
39.3176911
40.71092873
42.14036605
43.60076502
45.08619303
46.59060396
48.1087971
49.63810843
51.18154233
52.75367615
54.39170297
56.17541733
58.26286062
14.48527582
14.73298399
15.18705865
15.76880472
16.43413704
17.15458673
17.91319197
18.70163046
19.51729476
20.36083423
21.23347992
22.1347423
23.06201004
24.01170222
24.98077447
25.96777532
26.97324009
27.99955806
29.05054765
30.13093346
31.24583577
32.40031262
33.59895728
34.84554357
36.14271716
37.49174144
38.89231473
40.34247867
41.83863553
43.37568784
44.94731308
46.54639739
48.16569175
49.79884381
51.44214035
53.09762496
54.77883537
56.52133641
58.40149779
60.56992711
14.45415445
14.70608916
15.1690799
15.76295377
16.44239793
17.17814017
17.9529303
18.75860163
19.59298294
20.45727609
21.35310611
22.27996375
23.23488759
24.21391147
25.21383024
26.23336653
27.27353728
28.33742152
29.4296258
30.55567428
31.72143866
32.93263886
34.19440544
35.510889
36.88491348
38.3176862
39.80858839
41.35507357
42.95269741
44.59529458
46.27531387
47.98433008
49.71378656
51.45610817
53.20649622
54.9660225
56.74717418
58.58383583
60.54881498
62.78515031
14.42372446
14.67978267
15.15149822
15.75724056
16.45046698
17.20110139
17.99161714
18.81402985
19.66664048
20.5512412
21.46986006
22.42191891
23.40402787
24.41178008
25.44180581
26.49304358
27.56705263
28.66765453
29.80027419
30.97124022
32.1871597
33.45438304
34.77853473
36.16408704
37.61397327
39.12925918
40.70890532
42.34965685
44.04609104
45.79084044
47.5750004
49.38873192
51.22210276
53.06629045
54.91543413
56.76970402
58.6406501
60.56063925
62.59917414
64.89230237
14.3939668
14.65404931
15.13430524
15.75166586
16.4583564
17.22349578
18.02929216
18.86796971
19.73833776
20.64281705
21.58384484
22.56071559
23.56952313
24.60536258
25.66470197
26.746745
27.85365579
28.99004464
30.1621712
31.37715599
32.64230759
33.96455934
35.34997291
36.80327703
38.32743894
39.92329488
41.58928338
43.32132876
45.11291244
46.95535222
48.83829454
50.75042124
52.68040096
54.61819114
56.55695295
58.49610175
60.44647278
62.43925461
64.54121011
66.88248937
14.36486619
14.62887827
15.11749818
15.74623784
16.46608811
17.24536147
18.06601142
18.92049667
19.80817141
20.7321239
21.69520401
22.69651057
23.73152418
24.79478481
25.8826092
26.99452465
28.13336431
29.3045655
30.5152242
31.773223
33.0865216
34.46257495
35.90781501
37.42715566
39.02352094
40.69743286
42.44671555
44.26637539
46.14870285
48.08361803
50.0592595
52.06280716
54.08155409
56.10431545
58.12341275
60.13771482
62.15764413
64.21366956
66.37057289
68.75399185
14.33641046
14.60426234
15.10107887
15.74097065
16.47369202
17.26674705
18.10184446
18.97170329
19.87625961
20.81930919
21.80411507
22.82950213
23.89023232
24.98023574
26.09570042
27.23654608
28.40634011
29.61137598
30.85957258
32.15952837
33.51978957
34.94826097
36.45167166
38.03504764
39.70119585
41.45024807
43.27933651
45.18247398
47.15069325
49.17246839
51.23441103
53.32221948
55.42187912
57.52118373
59.61179432
61.69228076
63.77299677
65.88420375
68.08953653
70.51158407
14.30858993
14.58019721
15.08505271
15.73588313
16.48120419
17.28770918
18.13687128
19.02169549
19.94273748
20.90454188
21.91078272
22.95992225
24.04589056
25.16195842
26.30422231
27.4730745
28.67288217
29.91081405
31.19558351
32.53644429
33.94245353
35.42188744
36.98169718
38.62695054
40.36027117
42.18133795
44.08653286
46.06882504
48.11795404
50.22093542
52.36287347
54.52804422
56.70122948
58.86935353
61.02361921
63.16255895
65.29680548
67.45691611
69.70618276
72.16550909
14.28139685
14.55668076
15.06942781
15.7309976
16.48866524
17.30831048
18.17117949
19.0705888
20.00775241
20.98800668
22.0154319
23.08802844
24.19877444
25.34024025
26.50848528
27.70446661
28.93341587
30.20338528
31.52384034
32.90461764
34.35520241
35.88416163
37.4985958
39.20355107
41.00141319
42.89136192
44.86899244
46.92620678
49.05144648
51.23028931
53.44638499
55.68267688
57.92287199
60.15319287
62.36459083
64.55581222
66.7380867
68.942711
71.23332517
73.73027462
14.25482498
14.5337125
15.05421416
15.72633871
16.49611881
17.32861741
18.20486158
19.11850492
20.07145955
21.06989846
22.11830106
23.21409573
24.34918287
25.51540286
26.70885272
27.93115865
29.18847915
30.48974678
31.84512431
33.26495031
34.75905231
36.33620963
38.00360594
39.76621281
41.62613769
43.5820332
45.62869318
47.75695415
49.95398174
52.20396334
54.48917089
56.79132339
59.09319235
61.38046627
63.64403835
65.88309007
68.10971113
70.35628611
72.68732546
75.22341507
14.22886917
14.51129306
15.03942295
15.72193244
16.50361012
17.34869843
18.23801243
19.16556837
20.13401758
21.15041697
22.21963566
23.33840894
24.4974291
25.68779206
26.90572972
28.15365316
29.4387062
30.77068701
32.16039038
33.61857129
35.15531538
36.7795425
38.49846371
40.31693636
42.23676517
44.25606589
46.36883646
48.56487039
50.83009962
53.14738587
55.49771234
57.86168693
60.22128069
62.56180054
64.87424681
67.15841255
69.42744099
71.71503999
74.0869185
76.66433287
14.20352508
14.48942379
15.02506596
15.71780526
16.51118481
17.36862229
18.27072705
19.21190354
20.19558491
21.22976196
22.31968215
23.4612554
24.64383217
25.85776811
27.0995517
28.37250484
29.68480927
31.04710247
32.47073825
33.96680189
35.54555906
37.21600904
38.98534822
40.85829553
42.83634509
44.9170829
47.09373286
49.3550825
51.68588334
54.06774199
56.48044083
58.90358045
61.31844781
63.71009216
66.06974655
68.39793853
70.7089832
73.03803262
75.45213326
78.07329111
14.17878892
14.46810647
15.01115508
15.71398336
16.51888785
17.3884566
18.30309862
19.25763207
20.25631618
21.30812876
22.41868253
23.58291831
24.78870898
26.0256964
27.29077315
28.58830599
29.92755916
31.31997216
32.77738002
34.3111159
35.93155775
37.64773775
39.4668119
41.39335345
43.4285542
45.569492
47.8086499
50.13385322
52.528727
54.97368642
57.44738593
59.92849924
62.39771394
64.83990634
67.24662095
69.6191864
71.97313575
74.34508298
76.80338966
79.47060404
14.15465734
14.44734306
14.99770193
15.71049211
16.52676268
17.40826659
18.33521677
19.30287053
20.31635923
21.38570437
22.51686948
23.70367078
24.93236709
26.1919389
27.47985684
28.80167188
30.16776519
31.59033087
33.08160578
34.65309634
36.31523944
38.07707115
39.94569994
41.92556375
44.01757564
46.21833813
48.51963215
50.90836277
53.36707195
55.8750276
58.40980069
60.94918241
63.47330416
65.96690842
68.42188139
70.84036631
73.23909722
75.65608089
78.16084209
80.87604871
14.1311273
14.42713558
14.98471761
15.70735554
16.53485052
17.42811413
18.36716624
19.34772852
20.37585252
21.46266406
22.61446208
23.82377059
25.07509829
26.35684632
27.66726361
29.01322641
30.40625515
31.85924213
33.38474852
34.99439101
36.69862967
38.50649568
40.42506292
42.4586623
44.60796561
46.86914061
49.23330427
51.68647282
54.21012728
56.78240074
59.37978504
61.97918777
64.56017986
67.10736276
69.61294992
72.07986701
74.52597801
76.99053692
79.54396662
82.30846015
14.10819613
14.40748605
14.97221251
15.70459605
16.54318979
17.44805689
18.39902571
19.39230715
20.434923
21.53916855
22.71166223
23.94345564
25.21717297
26.52075109
27.85344279
29.2235884
30.64385581
32.12777191
33.68814972
35.33666827
37.08379537
38.93857055
40.90806706
42.99655501
45.20451469
47.52772389
49.95666739
52.47648536
55.06758886
57.70694682
60.36992762
63.03250349
65.67363262
68.27772538
70.83726895
73.35589766
75.85248064
78.36729478
80.97128259
83.78541549
14.08586154
14.38839649
14.96019625
15.70223417
16.55181577
17.4681478
18.43086699
19.4366977
20.49368426
21.61536156
22.8086515
24.06294006
25.35883514
26.68396116
28.03882351
29.43335856
30.88137442
32.39696349
33.99312659
35.68157483
37.47279072
39.37585848
41.39790627
43.54320722
45.81211078
48.20005059
50.69689955
53.28690892
55.94937192
58.6600151
61.39298578
64.12321745
66.82895747
69.49433488
72.11201781
74.68622884
77.23665476
79.80428426
82.46008665
85.32293228
14.06412176
14.36986904
14.94867764
15.70028844
16.56076032
17.48843465
18.46275437
19.48098077
20.55223519
21.69136774
22.90558852
24.18241084
25.50029824
26.84675443
28.22380661
29.64310741
31.1195814
32.66781427
34.30094176
36.0306968
37.86760687
39.82086106
41.89771964
44.10253977
46.43561041
48.89206543
51.46117075
54.1262454
56.86537295
59.6529069
62.46162133
65.26525631
68.04120392
70.77317754
73.45388583
76.08796183
78.69565054
81.31825261
84.026167
86.93518187
14.04297571
14.35190612
14.93766484
15.6987754
16.57005175
17.50895977
18.49474424
19.52522554
20.61065873
21.76729102
23.00260674
24.30202496
25.64174132
27.00937387
28.40875725
29.85336403
31.35919443
32.94125464
34.61277613
36.38552467
38.27012703
40.27596093
42.41051761
44.67833621
47.07972446
49.6095581
52.25648329
55.00281047
57.82527569
60.69667503
63.58820131
66.47219206
69.32498658
72.12969399
74.87886484
77.57729984
80.24546891
82.92450315
85.68354905
88.63426856
14.02242321
14.33451057
14.92716543
15.69770963
16.57971477
17.52976001
18.52688484
19.5694893
20.66902105
21.84321309
23.09981241
24.42190676
25.7833057
27.17202309
28.59399809
30.06460553
31.60086387
33.21812901
34.92970476
36.74742285
38.68208743
40.74337204
42.93911901
45.27416453
47.74892341
50.35805203
53.08954635
55.92459841
58.83841225
61.80198638
64.7846637
67.7571071
70.69434158
73.57861952
76.40207076
79.16935551
81.90076695
84.63671471
87.44434686
90.43013028
14.00246525
14.31768598
14.91718662
15.69710388
16.58977059
17.55086669
18.55921621
19.61381723
20.72737081
21.91919212
23.19728282
24.5421456
25.92509192
27.3348621
28.77980265
30.27724713
31.84515931
33.49917877
35.25267578
37.11760343
39.1050445
41.22509838
43.48610002
45.8933154
48.44736519
51.14272407
53.96669122
56.89919787
59.91368341
62.9790475
66.06244431
69.13251564
72.16263759
75.13388517
78.03764235
80.87806088
83.67479434
86.46691753
89.3187844
92.33060357
13.98310427
14.3014369
14.90773551
15.69696922
16.60023697
17.5723057
18.59177026
19.65824222
20.78573859
21.99526161
23.29506461
24.66279356
26.06715668
27.4980033
28.96638875
30.49163241
32.0925567
33.78502655
35.58249147
37.49710328
39.54034715
41.72290055
44.05375459
46.53875721
49.17884693
51.96835663
54.89382873
57.9337589
61.05953654
64.23759092
67.43246704
70.61035543
73.74257179
76.80862734
79.79877903
82.71624924
85.5795316
88.42568966
91.31543666
94.34168216
13.96434443
14.28576919
14.89881933
15.69731525
16.61112841
17.5940977
18.62457098
19.70278504
20.8441365
22.07142918
23.39317207
24.78386302
26.20950979
27.66150711
29.15391167
30.70802335
32.34342566
34.07616095
35.91979038
37.88676322
39.9891123
42.23826781
44.64406379
47.21310495
49.94677724
52.83931856
55.87644399
59.03500461
62.28399474
65.58692066
68.90520628
72.20207244
75.44628774
78.61535472
81.69797458
84.69597041
87.6260912
90.52262882
93.4417315
96.46799056
13.94619196
14.2706903
14.89044568
15.69815027
16.62245635
17.61625834
18.65763472
19.74745445
20.90255789
22.1476756
23.49158544
24.90532406
26.35211076
27.82537719
29.34245649
30.9265895
32.59801584
34.3729205
36.26502866
38.2872065
40.45220077
42.77239181
45.25866942
47.9185971
50.75416148
53.75956473
56.91961559
60.20927413
63.59472671
67.0360138
70.490829
73.91881673
77.28564347
80.56630938
83.74749119
86.82909003
89.82543541
92.76714942
95.70474737
98.71348521
13.92865536
14.25620955
14.88262278
15.69948149
16.63422929
17.63879848
18.69097058
19.79224765
20.96097721
22.22395363
23.59024903
25.0271014
26.4948648
27.98955481
29.5320292
31.14739561
32.85644136
34.67547494
36.61845823
38.69881356
40.93018864
43.3261358
45.89884347
48.65706954
51.60358554
54.73263593
58.02803812
61.46257487
64.99913809
68.59366395
72.19940795
75.7717481
79.27263525
82.67403619
85.96009829
89.12820763
92.18945251
95.16964384
98.1123289
101.0823779
13.91174568
14.24233836
14.87535968
15.70131515
16.64645293
17.66172447
18.72458088
19.83715078
21.01935006
22.30018709
23.68906918
25.14907058
26.63761793
28.15391175
29.72254589
31.37038668
33.11866184
34.98380196
36.98009841
39.1216881
41.42332761
43.89999008
46.56544082
49.42990897
52.49717501
55.76163019
59.20601418
62.80060709
66.50444527
70.26862654
74.0411661
77.7724122
81.4199427
84.95213502
88.35006381
91.60789725
94.73240848
97.74302641
100.6745181
103.5802439
13.89547657
14.22909039
14.8686663
15.70365652
16.65913025
17.68503833
18.75846162
19.88213967
21.07761347
22.37626992
23.78791191
25.27105291
26.78015055
28.31824132
29.91381918
31.59536917
33.38445794
35.29765612
37.34969696
39.55560851
41.93148567
44.49400116
47.2588172
50.2379611
53.43649643
56.84910287
60.45736373
64.22869902
68.11765967
72.06968281
76.02665883
79.93308755
83.74149391
87.41610032
90.93431701
94.28621122
97.47273685
100.5046297
103.4052465
106.2152121
13.87986438
14.21648153
14.86255339
15.7065098
16.67226129
17.70873774
18.79260295
19.92718067
21.13568651
22.45206544
23.88660002
25.39280858
26.92216895
28.48224647
30.10554063
31.82198675
33.65339913
35.61652651
37.72667482
39.9999567
42.45405636
45.10765796
47.97868859
51.08135982
54.42235488
57.99683555
61.78517337
65.75155408
69.84535975
74.00547411
78.16671979
82.26690574
86.25283653
90.08402861
93.73357224
97.18626122
100.4350146
103.4783213
106.3241281
108.9990148
13.86492786
14.20452971
14.85703221
15.70987769
16.68584281
17.73281588
18.8269894
19.97223163
21.19347119
22.52740583
23.98490921