/*--------------------------------*- C++ -*----------------------------------*\
| =========                 |                                                 |
| \\      /  F ield         | foam-extend: Open Source CFD                    |
|  \\    /   O peration     | Version:     3.2                                |
|   \\  /    A nd           | Web:         http://www.foam-extend.org         |
|    \\/     M anipulation  | For copyright notice see file Copyright         |
\*---------------------------------------------------------------------------*/
FoamFile
{
    version     2.0;
    format      ascii;
    class       volScalarField;
    location    "0.12";
    object      epsilon;
}
// * * * * * * * * * * * * * * * * * * * * * * * * * * * * * * * * * * * * * //

dimensions      [0 2 -3 0 0 0 0];

internalField   nonuniform List<scalar> 
18000
(
114.5596532
122.6070292
136.280189
152.7876984
171.1841517
191.1841732
212.7258562
235.8070053
260.4335243
286.5979133
314.2711167
343.4004777
373.9104874
405.7048905
438.6695061
472.6754259
507.5823831
543.2421438
579.5017996
616.2068617
653.2040839
690.3439559
727.4828328
764.4846865
801.2224783
837.5791757
873.4484322
908.734978
943.3547552
977.2348323
1010.313151
1042.538116
1073.868053
1104.270499
1133.721232
1162.202838
1189.702569
1216.210812
1241.760814
1267.435404
36.15697931
38.05278831
40.75485165
43.89397252
47.33039945
51.02397986
54.96119002
59.13759151
63.55355563
68.2099102
73.10621716
78.24006911
83.60684912
89.19966857
95.00938757
101.024688
107.2321896
113.6166054
120.1609372
126.8467039
133.6542008
140.5627809
147.5511482
154.5976566
161.6806033
168.7785106
175.870389
182.935977
189.9559545
196.9121271
203.7875851
210.5668382
217.2359402
223.7826225
230.1964744
236.4692402
242.5954332
248.5750539
254.4417428
260.6673021
19.89778411
20.73142997
21.75374293
22.88308642
24.0863798
25.35274206
26.67454981
28.04743969
29.46858896
30.93578941
32.4470054
34.0000886
35.59273005
37.22243219
38.88648641
40.58196367
42.30571379
44.05437264
45.82437688
47.61198614
49.41331172
51.22435095
53.04102553
54.8592227
56.67483752
58.48381543
60.28219344
62.06613958
63.83198952
65.57627959
67.29577651
68.98750251
70.64875598
72.2771266
73.87050509
75.42709966
76.94557685
78.4265711
79.88635479
81.50132463
13.80326213
14.28028033
14.82166488
15.39780815
15.99897423
16.62121958
17.26021187
17.9128667
18.57676452
19.24989987
19.93051971
20.61702464
21.307927
22.00182488
22.69738204
23.39331232
24.08836783
24.78133127
25.47101192
26.15624479
26.83589229
27.50884812
28.17404245
28.83044805
29.47708671
30.11303563
30.73743346
31.34948576
31.94846971
32.53373792
33.10472156
33.66093259
34.20196567
34.72750087
35.23731237
35.73131267
36.20978904
36.67487266
37.1386001
37.6744611
10.83502208
11.14856908
11.49857731
11.86558077
12.24532456
12.63551059
13.03313059
13.43580127
13.84154566
14.2487146
14.6559068
15.06191385
15.46568428
15.86629676
16.26293843
16.65488711
17.04149688
17.42218688
17.79643285
18.16376102
18.5237438
18.87599699
19.22017791
19.55598416
19.88315283
20.20145984
20.5107193
20.81078282
21.10153865
21.38291062
21.65485698
21.91736921
22.17047135
22.4142224
22.64873105
22.87422498
23.09133654
23.30236536
23.51606114
23.7687732
9.166509225
9.392271429
9.650848351
9.923412191
10.20624034
10.49702711
10.79312841
11.09238824
11.39300456
11.69348397
11.99258091
12.28925131
12.58261656
12.87193513
13.15657973
13.43601901
13.70980285
13.97755079
14.23894277
14.49371193
14.74163881
14.98254676
15.21629803
15.44279058
15.66195523
15.87375307
16.07817319
16.27523037
16.46496307
16.64743136
16.82271521
16.99091325
17.15214341
17.30654949
17.45432698
17.59581576
17.73180057
17.86454939
18.00082561
18.1624708
8.146598823
8.321491847
8.532172601
8.758376149
8.995485228
9.240661441
9.49120018
9.744924704
10.00003826
10.2550673
10.50879713
10.76022231
11.00850707
11.25295436
11.49298186
11.72810356
11.9579154
12.18208417
12.40033858
12.61246201
12.81828649
13.01768755
13.21057964
13.39691219
13.57666593
13.74984965
13.91649713
14.07666441
14.23042721
14.37787867
14.5191276
14.65429783
14.78353058
14.90699555
15.02492655
15.13773056
15.24628977
15.35285246
15.46319729
15.59331741
7.4871058
7.631440747
7.816248298
8.019551587
8.235489642
8.460542425
8.691758019
8.926816034
9.163833347
9.401281495
9.637909958
9.872688472
10.10476175
10.33341515
10.55804923
10.77816113
10.9933308
11.2032106
11.40751701
11.60602384
11.79855629
11.98498567
12.16522465
12.33922281
12.50696264
12.66845581
12.82373971
12.97287433
13.11593942
13.25303211
13.38426518
13.50976716
13.62968655
13.74420754
13.85359512
13.95831953
14.0593675
14.15907083
14.2629087
14.38464459
7.042049114
7.167948022
7.339260295
7.532429368
7.74034906
7.958803669
8.184515613
8.414961578
8.648124563
8.882382047
9.116413515
9.349132411
9.57963385
9.807156151
10.03105358
10.25077748
10.46586311
10.67592017
10.88062535
11.07971611
11.27298513
11.46027508
11.64147376
11.81650946
11.98534661
12.1479817
12.30443951
12.45476969
12.59904364
12.73735202
12.8698032
12.99652406
13.11766636
13.23342719
13.34410381
13.45023525
13.5529346
13.6547174
13.76118872
13.88559862
6.729638056
6.844671629
7.00991215
7.200395377
7.407867721
7.627448951
7.855507105
8.089288756
8.326619359
8.565762717
8.805311589
9.044108036
9.28118309
9.515713515
9.74699244
9.974410227
10.19744208
10.41563966
10.62862469
10.83608358
11.0377623
11.23346144
11.42303129
11.60636707
11.7834043
11.95411446
12.11850091
12.27659509
12.42845329
12.57415394
12.71379633
12.84750221
12.97542436
13.0977724
13.21487845
13.32735977
13.43648548
13.54505137
13.65909688
13.79234604
6.500945408
6.609941211
6.773711001
6.966018259
7.177574573
7.402877973
7.637936538
7.87975648
8.125995709
8.374796292
8.624657818
8.874345199
9.122819377
9.36918872
9.612677351
9.852605866
10.08837997
10.31948347
10.54547329
10.76597504
10.98067862
11.18933356
11.39174416
11.58776467
11.77729436
11.96027295
12.13667616
12.30651168
12.4698157
12.6266501
12.77710147
12.9212836
13.05934869
13.19151895
13.31816487
13.43999313
13.55846032
13.67672962
13.80151208
13.94766402
6.325534362
6.431568768
6.596728773
6.793605684
7.011977289
7.245761872
7.490612534
7.743294168
8.001295404
8.262635836
8.525721979
8.789241569
9.052084356
9.313287562
9.572001838
9.827472083
10.07902753
10.32607659
10.56810357
10.80466552
11.03538866
11.25996419
11.4781435
11.68973323
11.89459018
12.09261633
12.28375419
12.4679824
12.64531205
12.81578387
12.97946751
13.13646528
13.28692623
13.43108466
13.56935319
13.70254137
13.83232941
13.96233871
14.10017301
14.26236226
6.184202132
6.289207019
6.457500365
6.660582271
6.887381684
7.131274769
7.387569481
7.652793919
7.924271176
8.199902749
8.478006779
8.757197727
9.036296157
9.31426772
9.590186783
9.863217835
10.13260762
10.39768244
10.65784698
10.91258281
11.16144575
11.4040622
11.6401245
11.8693858
12.09165474
12.3067901
12.51469576
12.71531606
12.90863185
13.09465771
13.27344169
13.4450704
13.60968673
13.76753642
13.91907871
14.065242
14.20797167
14.35144598
14.50438597
14.68550388
6.064883488
6.170046125
6.342493397
6.552708467
6.78884284
7.043763752
7.312446231
7.591189719
7.877159466
8.168147132
8.462390705
8.758438147
9.055044913
9.351105928
9.645617137
9.937658191
10.22638748
10.51104262
10.79094195
11.06548499
11.33415093
11.59649549
11.85214635
12.1007978
12.34220497
12.57617815
12.80257723
13.02130671
13.23231155
13.43557444
13.63111611
13.81900224
13.99936551
14.17246191
14.33880279
14.49945517
14.6566803
14.81532966
14.98549569
15.18861769
5.960117758
6.066153842
6.243319813
6.461154869
6.707094577
6.973526958
7.255107787
7.547918691
7.848977923
8.155978752
8.467090152
8.780802654
9.095812152
9.410944387
9.725114878
10.03731389
10.34660544
10.65213189
10.95311877
11.24887746
11.53880498
11.82238129
12.09916467
12.36878596
12.63094226
12.88539057
13.13194166
13.37045472
13.60083285
13.82302049
14.03700455
14.24282356
14.44059504
14.6305839
14.81336024
14.99015416
15.16360471
15.33937644
15.52923179
15.75795902
5.865382496
5.972720456
6.154894916
6.380573149
6.63652907
6.914698675
7.209433272
7.516609734
7.833112845
8.156551726
8.485040042
8.817021912
9.151140329
9.486153752
9.820895148
10.15426056
10.48521352
10.81279473
11.13613097
11.45444027
11.76703312
12.07331001
12.37275653
12.66493692
12.94948688
13.22610633
13.49455256
13.75463413
14.00620622
14.24916812
14.48346544
14.70910216
14.92617468
15.13495499
15.33608019
15.53097359
15.72272833
15.91799254
16.1305587
16.38930218
5.777979745
5.886879997
6.074196026
6.307792393
6.573829901
6.863817758
7.171818515
7.493519267
7.825687242
8.165864218
8.512124624
8.862878931
9.2167248
9.572355482
9.928519052
10.28401232
10.63769225
10.98849208
11.33543495
11.67764198
12.01433464
12.34483247
12.66854739
12.98497613
13.29369174
13.59433504
13.88660671
14.17026033
14.4450973
14.71096459
14.96775831
15.21543944
15.45407617
15.68394543
15.90576123
16.12117671
16.33383177
16.55156473
16.79063208
17.08488073
5.696305145
5.806932748
5.999439386
6.240951186
6.517059277
6.818869613
7.140172427
7.476481691
7.824465151
8.181616453
8.54598912
8.915974359
9.290132825
9.667094695
10.04552061
10.42410308
10.80158689
11.1767931
11.54863813
11.91614496
12.27844657
12.63478327
12.98449573
13.32701562
13.66185516
13.98859682
14.30688369
14.61641149
14.91692282
15.20820522
15.4900965
15.76250509
16.0254628
16.27924887
16.52466596
16.76364079
17.00047101
17.24443272
17.51476583
17.85134552
5.619386711
5.731852741
5.929556238
6.178942902
6.465072773
6.778670452
7.113270805
7.464232787
7.828144747
8.202473698
8.585272767
8.974929805
9.369977417
9.768984821
10.17052251
10.57317378
10.97556652
11.37640658
11.77450322
12.16878347
12.55829637
12.94220922
13.31979855
13.69043807
14.05358544
14.40876931
14.75557749
15.09364732
15.4226591
15.74233443
16.05244382
16.35283272
16.64348725
16.92468588
17.19733351
17.46368156
17.72881586
18.00374173
18.31129477
18.69862552
5.546607183
5.660990726
5.863875856
6.121079119
6.417163393
6.742492167
7.090362212
7.455996825
7.83592689
8.227616504
8.62914103
9.038902293
9.455414293
9.87718728
10.30269873
10.7304182
11.15885323
11.58659387
12.01234523
12.4349451
12.85336844
13.26672168
13.67423051
14.07522393
14.4691171
14.85539465
15.23359586
15.60330268
15.96413196
16.31573419
16.65780376
16.99011216
17.31258954
17.62551006
17.9298961
18.2283823
18.52699263
18.83879782
19.19093712
19.63928168
5.477544594
5.593903748
5.80194357
6.066896252
6.372856995
6.70984676
7.070941605
7.451249608
7.847267844
8.256483342
8.677018404
9.10730746
9.545855658
9.991115985
10.44146984
10.89526911
11.35089923
11.8068369
12.26169051
12.71422105
13.16334596
13.60813037
14.0477702
14.48157081
14.90892437
15.32928815
15.74216546
16.14709056
16.54361927
16.93132791
17.30982693
17.67880279
18.03811869
18.38804053
18.72972506
19.06625536
19.40476191
19.76075949
20.16649034
20.68818214
5.411884486
5.53026165
5.743421263
6.016050098
6.331801056
6.680369474
7.054628036
7.449590951
7.861746726
8.288633241
8.728446437
9.179673115
9.640819388
10.11028217
10.58634347
11.06723419
11.551218
12.03666442
12.52209801
13.00622224
13.48792178
13.96624909
14.44040092
14.9096896
15.37351301
15.83132615
16.28261638
16.72688419
17.1636315
17.59236076
18.01259251
18.42391773
18.8261216
19.21945762
19.60523515
19.98705675
20.37334346
20.78246902
21.25265619
21.86228709
5.349373139
5.469797621
5.688035161
5.96826097
6.293707246
6.653758975
7.041102601
7.450680563
7.878999511
8.323678071
8.783014422
9.255568435
9.739856732
10.23422051
10.73683856
11.24581821
11.75930412
12.27556914
12.79307321
13.31048976
13.82670512
14.34079835
14.85200886
15.35969786
15.8633086
16.36232906
16.8562598
17.34458922
17.82677872
18.30226183
18.77046629
19.23087881
19.68319606
20.12765536
20.56573816
21.00164189
21.44527354
21.9183063
22.46587448
23.18041827
5.28979314
5.412282648
5.635549275
5.923286212
6.258323169
6.629748435
7.030079014
7.454208279
7.898689048
8.361252473
8.840329358
9.334573978
9.842522314
10.36245892
10.89245474
11.43049156
11.9746004
12.52297293
13.07403102
13.62645491
14.17917803
14.73135752
15.2823301
15.83156073
16.37859025
16.92298676
17.46430396
18.00204926
18.53566485
19.06452643
19.58797056
20.10537388
20.61633574
21.12107458
21.62126458
22.12177598
22.63420258
23.1839674
23.82406291
24.66290773
5.232950692
5.357512428
5.585752115
5.880906864
6.225419071
6.608092416
7.021290809
7.459881701
7.920493284
8.401002795
8.900005662
9.41627218
9.948365298
10.49451012
11.05266393
11.62068141
12.19648814
12.77821569
13.36428248
13.95342296
14.54467533
15.13733979
15.73091914
16.3250512
16.91944071
17.51379638
18.10777737
18.70095236
19.29277515
19.88258264
20.46962794
21.05317626
21.632724
22.20846993
22.78230307
23.35984482
23.95457444
24.59610436
25.34619559
26.33105726
5.178668933
5.305300589
5.53845006
5.840921299
6.194781873
6.588561415
7.014486521
7.467422159
7.94410213
8.442584955
8.961664109
9.500247363
10.05693032
10.62987327
11.21691222
11.81577338
12.4242881
13.04055488
13.66303232
14.29056778
14.92237507
15.55797675
16.19712545
16.8397162
17.48569893
18.13499808
18.78744435
19.44272253
20.10034017
20.75962399
21.41975926
22.07990457
22.73945227
23.398584
24.05942713
24.72843067
25.42114675
26.17178014
27.05166939
28.20636005
5.126784326
5.255475078
5.493463979
5.80314223
6.166212664
6.57093995
7.009428492
7.476564365
7.969218076
8.485666146
9.024934708
9.586089756
10.16776253
10.76803972
11.38462595
12.01511755
12.6572659
13.30916992
13.96938153
14.63693157
15.31129386
15.9923072
16.68007301
17.37484332
18.0769101
18.78650388
19.50370774
20.22839139
20.96017092
21.69840269
22.44222932
23.19071539
23.94315423
24.69971714
25.46279494
26.23973582
27.04833006
27.92771115
28.95942696
30.30945814
5.077144641
5.207876154
5.450627467
5.767395309
6.139525767
6.555026206
7.005893208
7.487057556
7.995558287
8.529928003
9.089461011
9.673400946
10.28041402
10.90850017
11.55521939
12.21803628
12.89463964
13.58316917
14.28233302
14.99142803
15.71028575
16.43916919
17.17864207
17.92942821
18.69227362
19.46782065
20.25650081
21.0584522
21.87346804
22.70098666
23.54014407
24.38993259
25.24955888
26.11919578
27.00152361
27.90485238
28.84934124
29.87928867
31.08682569
32.65883504
5.029607763
5.162355202
5.409785863
5.733518475
6.114548505
6.540632298
7.003672182
7.498667138
8.022857122
8.575070124
9.154904755
9.761799645
10.39445065
11.05075234
11.72810294
12.42383278
13.13558887
13.86159895
14.60080011
15.35284917
16.11804537
16.89719653
17.69145521
18.50214525
19.33059278
20.17797222
21.04517444
21.93270419
22.84061458
23.76849138
24.71551166
25.68062717
26.66297803
27.66275539
28.68295449
29.73289528
30.83518725
32.03939539
33.44827232
35.26927862
4.984040969
5.118773996
5.370795666
5.701361635
6.091121232
6.527584752
7.00257298
7.511176364
8.050868618
8.620813506
9.220950345
9.850927272
10.5094586
11.19430845
11.90269152
12.63180055
13.37926494
14.14345495
14.92361857
15.71987678
16.53311675
17.36482194
18.21687066
19.09132587
19.99023179
20.91542797
21.86838917
22.85009893
23.86096678
24.90080415
25.96888835
27.0641718
28.18575549
29.33386916
30.51184421
31.73003668
33.01352237
34.41706639
36.05368434
38.15019862
4.940320436
5.077004183
5.333524152
5.670786499
6.069097447
6.515724979
7.002420156
7.524387863
8.079368735
8.666903659
9.287308984
9.940453135
10.62505068
11.33870256
12.07841309
12.84123329
13.62480302
14.42769642
15.24956277
16.09109956
16.9539095
17.84028919
18.75298621
19.69494919
20.66908688
21.67804706
22.72402405
23.8086043
24.93266214
26.09632429
27.2990374
28.53980387
29.8177181
31.13306901
32.48953597
33.8985057
35.38745422
37.0160864
38.90689281
41.30394276
4.898330891
5.036926892
5.297849062
5.641666429
6.04834388
6.504909657
7.003056023
7.538124904
8.108157261
8.713113299
9.353722305
10.03007911
10.74087201
11.4834975
12.25471716
13.0514358
13.87133588
14.71326356
15.57736665
16.46503689
17.37872362
18.32167629
19.29765724
20.31065002
21.36457867
22.46304824
23.60911586
24.80510353
26.05246763
27.35174806
28.70263695
30.10424079
31.55568136
33.05732276
34.61318752
36.2356456
37.95441123
39.8336625
42.00415991
44.72431596
4.857965313
4.998432396
5.263658319
5.613886279
6.028740497
6.495010963
7.004341192
7.552232345
8.137059297
8.759244541
9.419965415
10.11954366
10.85660525
11.62829145
12.43108341
13.26173542
14.11800943
14.999098
15.90574947
16.84016941
17.8057837
18.8069313
19.84853126
20.93574863
22.07367247
23.26701507
24.51984231
25.83534818
27.21569261
28.6619303
30.17407742
31.75139873
33.39307343
35.09954583
36.87515237
38.73314756
40.70521927
42.85935584
45.33303398
48.39554975
4.819124653
4.961419781
5.230849722
5.587342168
6.010180386
6.485916628
7.006154848
7.566577231
8.165926299
8.805130523
9.485849289
10.20862513
10.97197489
11.77272386
12.60702999
13.47149409
14.3639999
15.28416618
16.23344607
17.21497623
18.2332826
19.2939214
20.40310087
21.56730549
22.79293209
24.08594524
25.45156212
26.89398308
28.41619131
30.01985578
31.7053917
33.47227028
35.31974801
37.24833675
39.26262618
41.37660092
43.62356085
46.07448413
48.87178832
52.29197369
4.781717543
4.925796598
5.199330599
5.561941166
5.992569515
6.477529781
7.008394747
7.581049003
8.194636607
8.850636412
9.551222406
10.29714421
11.08675087
11.91648062
12.78212147
13.68012064
14.60853204
15.56748498
16.5592409
17.58797788
18.6594336
19.78049458
20.95877522
22.20220255
23.51861071
24.91535005
26.39892177
27.97465793
29.64647605
31.41674981
33.28635819
35.25501455
37.32205602
39.48802609
41.75767235
44.14550249
46.6859922
49.45220134
52.58966829
56.37859184
4.745659981
4.891478491
5.169017413
5.537600904
5.975826348
6.469768606
7.010976926
7.595559326
8.223095473
8.895659751
9.615971581
10.38496542
11.20075104
12.05929832
12.95597614
13.88708279
14.8508978
15.84814849
16.88200418
17.95778313
19.0825293
20.26455227
21.51296847
22.83725005
24.2467787
25.75040619
27.35603366
29.07023425
30.89795519
32.84234925
34.90480714
37.08530162
39.38323272
41.79911383
44.3377228
47.01384491
49.86266069
52.9584116
56.44809496
60.61266324
4.710874995
4.858388794
5.139835314
5.514249084
5.959881326
6.462565777
7.013835119
7.610041511
8.251234552
8.940130123
9.680021952
10.47199762
11.31384249
12.20096731
13.12827224
14.09191849
15.09047446
16.12535478
17.20072872
18.32313764
19.50100441
20.74412967
22.06320193
23.4693156
24.97348562
26.58615711
28.31672422
30.1730882
32.16129924
34.28534163
36.54714377
38.94693288
41.48413131
44.15913728
46.97660879
49.95134951
53.11879318
56.55357828
60.40285169
64.94624833
4.677292266
4.826458092
5.11171763
5.491822912
5.944676213
6.455867718
7.016919909
7.624449562
8.279010877
8.984008137
9.743336097
10.5581934
11.42594178
12.34133351
13.29875294
14.29424591
15.32674149
16.39843101
17.51456513
18.68297145
19.91349907
21.21747949
22.60721441
24.09546885
25.69494824
27.4177551
29.27484208
31.27549837
33.42692379
35.73396083
38.199077
40.82272632
43.60429289
46.54395932
49.64610852
52.92532279
56.41691641
60.19535574
64.40712902
69.32953902
4.644847738
4.79562376
5.084605331
5.470268458
5.930163341
6.44963369
7.020197628
7.638756872
8.306405355
9.027283762
9.805912321
10.64354757
11.5370138
12.48029878
13.46722973
14.49377156
15.55929492
16.66685551
17.8228532
19.03644252
20.31891855
21.68315378
23.14307404
24.713133
26.40775366
28.24072986
30.22460829
32.37009654
34.68556239
37.17670674
39.84651415
42.69561869
45.72329318
48.92940244
52.31791652
55.9030122
59.71964467
63.84182713
68.41515693
73.71467209
4.613483206
4.765829479
5.05844645
5.449539956
5.916304749
6.443834727
7.023649044
7.652954611
8.333420827
9.069974081
9.867782163
10.72809448
11.64706949
12.61781986
13.63358406
14.69029611
15.78785848
16.9302753
18.1251475
19.38297318
20.71648524
22.14007822
23.66928361
25.32023242
27.10906282
29.05126423
31.16098358
33.4503488
35.92888728
38.60313512
41.47655328
44.54989778
47.82225629
51.29308889
54.96585675
58.85423507
62.99275129
67.45500376
72.38603232
78.05963273
4.583145897
4.737024747
5.033195488
5.429599074
5.903071269
6.438452479
7.027267882
7.667049861
8.360079762
9.112120528
9.929007232
10.81190462
11.75616244
12.75390588
13.79776708
14.88371747
16.01229069
17.18851785
18.42123524
19.72227697
21.10577926
22.58761322
24.18487142
25.9153249
27.7967984
29.84645507
32.08002258
34.51102689
37.15012523
40.00464866
43.07848366
46.37244928
49.88538701
53.61629795
57.56810105
61.75398403
66.20816316
71.00416475
76.28727979
82.33179178
4.553788055
4.709164396
5.008812817
5.410414159
5.890441561
6.433477965
7.031059226
7.681063566
8.386421678
9.153785732
9.989675483
10.89508036
11.86438443
12.88861462
13.9597975
15.07403092
16.23258744
17.44159629
18.71114511
20.05437379
21.48676428
23.02559699
24.68946026
26.49770751
28.46980134
30.62453683
32.97918395
35.54862748
38.34461136
41.37521351
44.64469483
48.15388926
51.90135663
55.88563123
60.1091322
64.58469085
69.34650241
74.46861149
80.09769364
86.51062891
4.525366531
4.682208111
4.985264089
5.391959487
5.878401141
6.428910312
7.035037854
7.695028363
8.412500368
9.195050073
10.0498971
10.97775123
11.97186029
13.02204747
14.11975765
15.26132634
16.44887987
17.68970764
18.9951466
20.37959224
21.85979679
23.45436724
25.18330888
27.06748739
29.12794251
31.38504826
33.85756859
36.56170061
39.51022838
42.71193074
46.17140184
49.8894625
53.86438957
58.09429531
62.58121831
67.33787143
72.39885747
77.83949256
83.80911459
90.58933266
4.497842405
4.656119989
4.962519678
5.374214533
5.866941428
6.42475548
7.039226559
7.708986375
8.43838104
9.236008086
10.10980012
11.06006873
12.07874209
13.15434367
14.27778791
15.44578256
16.66142759
17.93322413
19.27373949
20.69855893
22.22561781
23.87475949
25.66732244
27.62561125
29.77217999
32.1289277
34.71606484
37.55105757
40.64769032
44.01540826
47.65911494
51.57961523
55.77493691
60.24286344
64.9852362
70.01496795
75.36758559
81.12049928
87.42696467
94.57517385
4.471180626
4.630868121
4.940554152
5.357163287
5.856058825
6.421025048
7.043654508
7.722987024
8.464137464
9.276764828
10.169526
11.14220102
12.18520299
13.28567365
14.43407982
15.62765914
16.87060777
18.17267827
19.54763463
21.01217548
22.58532793
24.28808233
26.14303121
28.17385161
30.40455779
32.85853001
35.55738962
38.51984227
41.7606486
45.28990338
49.11281602
53.23019589
57.63988303
62.33945798
67.3307868
72.62734188
78.26612193
84.32744088
90.96959089
98.48875502
4.445349696
4.606424217
4.919345793
5.340793614
5.845753871
6.417735057
7.048355694
7.737084938
8.489849192
9.317432319
10.22922519
11.22432761
12.29143101
13.41623214
14.58886814
15.80728616
17.07690059
18.40874251
19.81772698
21.32158496
22.94034723
24.69607154
26.61253953
28.71475147
31.02814711
33.57756539
36.3860251
39.47346443
42.8556181
46.54323385
50.54184086
54.8522876
59.47229865
64.39938569
69.63566647
75.19553158
81.11797933
87.48696605
94.46675277
102.3624559
4.420321397
4.582763292
4.898876186
5.325096696
5.836030474
6.414904971
7.053367501
7.751338008
8.515598957
9.358126155
10.28905293
11.30663417
12.39762277
13.54623103
14.7424222
15.98505229
17.28087191
18.64220476
20.08506286
21.62812986
23.29236314
25.10082651
27.07844912
29.2515324
31.6469366
34.29096804
37.20806085
40.41940807
43.94174115
47.78648227
51.95950339
56.4617261
61.29082168
66.44434886
71.92487887
77.74804394
83.95531342
90.63491569
97.9578041
106.2385334
4.396070562
4.55986339
4.879129863
5.310066552
5.826895247
6.41255676
7.058729437
7.765805622
8.54147028
9.398962369
10.34916531
11.38930766
12.50397759
13.67589232
14.89503702
16.16139191
17.48315417
18.87394122
20.35080323
21.93330445
23.6432698
25.5047337
27.54376298
29.7879741
32.26568184
35.00470852
38.03095996
41.36693979
45.03042346
49.03354136
53.38252916
58.07839921
63.11880344
68.5014272
74.22945373
80.32002476
86.81746669
93.8147558
101.4899948
110.1671992
4.372574904
4.537705385
4.860094025
5.295699633
5.818356949
6.410714118
7.064482043
7.780547136
8.567545332
9.440054587
10.40971564
11.47253183
12.61069186
13.80544145
15.04702427
16.33677172
17.68442636
19.10488789
20.61618527
22.23870425
23.99510252
25.9103822
28.01177664
30.32827491
32.88972699
35.7255671
38.86327285
42.32674985
46.13488741
50.30056374
54.83038757
59.72545308
64.98339031
70.60204785
76.58532683
82.95206787
89.74970772
97.07621322
105.1169151
114.2047019
4.349814891
4.516272831
4.841758333
5.28199453
5.810426055
6.409401849
7.070666002
7.795620575
8.593903092
9.481511502
10.47085128
11.5564832
12.71795394
13.93510092
15.19870358
16.51167735
17.88539381
19.33601208
20.88248383
22.54597526
24.34997133
26.32047655
28.48596415
30.8769031
33.52481251
36.46088746
39.7143256
43.31056321
47.26969478
51.60538887
56.32462212
61.42853424
66.91469437
72.78110232
79.03240858
85.68921604
92.80211379
100.4739644
108.8969004
118.4113496
4.327773682
4.495551877
4.824114781
5.268951758
5.803114433
6.408645403
7.077321458
7.811081601
8.620617785
9.523434694
10.53271079
11.64132744
12.82593961
14.06508466
15.35039434
16.68660043
18.08676876
19.56828506
21.15097467
22.85676529
24.70999661
26.73775166
28.96986545
31.43844892
34.17688273
37.2183302
40.59390994
44.33075863
48.4502918
52.96701765
57.88826641
63.21516347
68.94513643
75.07625247
81.61382018
88.58006954
96.02848235
104.0662865
112.8913829
122.8495609
4.30643711
4.475531245
4.807157629
5.256573639
5.796435155
6.40847058
7.084487547
7.826982735
8.647757632
9.565916768
10.59542152
11.72721627
12.93480803
14.19559298
15.50240805
16.86202636
18.28925208
19.80265666
21.42290062
23.17267918
25.07724969
27.16489356
29.46698098
32.01748555
34.85190539
38.0056437
41.51200051
45.4000315
49.69262328
54.40519034
59.5454003
65.11427718
71.10896164
77.52738609
84.37523791
91.6759642
99.4852987
107.91379
117.1633909
127.5821616
4.285793716
4.45620226
4.790883422
5.244864271
5.790402414
6.408903388
7.092202138
7.843372847
8.675383877
9.609039817
10.6590976
11.8142849
13.04469838
14.32680817
15.65504155
17.03842314
18.49351663
20.04003254
21.69944143
23.49523919
25.45370022
27.60446901
29.9806779
32.61844589
35.55571351
38.83046771
42.47852063
46.53112828
51.01284777
55.94009542
61.32085815
67.15592479
73.44189827
80.17619967
87.36436454
95.0303082
103.2309285
112.0784654
121.7764478
132.6711396
4.265834819
4.437558931
4.775291052
5.233829582
5.785031562
6.409970062
7.100501793
7.860296905
8.70355011
9.652874173
10.72383823
11.9026498
13.155727
14.45889091
15.80857088
17.21623125
18.70019244
20.28125422
21.98168791
23.82585106
25.84117122
28.05886568
30.51411094
33.24552018
36.29387738
39.70018078
43.50317156
47.73666884
52.42716537
57.59220974
63.24007603
69.37110595
75.9809635
83.06595699
90.63063739
98.69824664
107.3252471
116.6232696
126.7940783
138.1770062
4.246554628
4.419598069
4.760381884
5.223477438
5.780339229
6.411697224
7.109421926
7.877795996
8.732301867
9.697477448
10.78972643
11.99240702
13.26798518
14.59197735
15.96324602
17.39585469
18.9098538
20.5270822
22.27062015
24.165776
26.24130229
28.53024367
31.07015951
33.90257712
37.07161122
40.62179814
44.59533182
49.02905947
53.9517538
59.38225926
65.32907215
71.79176514
78.76447431
86.24153106
94.22532645
102.7368421
111.8299115
121.6124557
132.2800936
144.1588766
4.227950368
4.402319441
4.746159911
5.213817817
5.77634354
6.414112168
7.118997168
7.895907599
8.761676505
9.742893835
10.85682798
12.08363076
13.38153741
14.7261767
16.11928631
17.57765315
19.12300823
20.77818172
22.56708983
24.51610805
26.65552037
29.02049771
31.65138048
34.59310865
37.89371457
41.60191885
45.76402211
50.42048743
55.60280113
61.33129657
67.61457851
74.4509965
81.8323578
89.74986401
98.20219354
107.2059732
116.8095001
127.1128734
138.2998541
150.6754029
4.210022414
4.38572592
4.732631926
5.204862998
5.773064364
6.417243258
7.129261905
7.914666136
8.791703364
9.789153659
10.92519077
12.17637232
13.49642
14.86156949
16.27687649
17.76193514
19.34008697
21.03511102
22.87180568
24.87775601
27.08501672
29.53122862
32.25997487
35.32019518
38.76454332
42.64671325
47.01792201
51.92298054
57.39662443
63.46090142
70.12435852
77.38352845
85.22686761
93.64099188
102.6189044
112.1701923
122.3338067
133.1965518
144.9227922
157.786752
4.192774402
4.36982363
4.719807678
5.196627747
5.770523595
6.42112038
7.140250988
7.934103768
8.822404211
9.836273171
10.99484434
12.27065902
13.6126399
14.99820591
16.43616295
17.94895178
19.56143673
21.29831116
23.18532115
25.251428
27.53072787
30.06372047
32.89776306
36.08648349
39.68799796
43.76193245
48.36541538
53.54850956
59.3498612
65.7935097
72.88774096
80.62654996
88.99380872
97.96978995
107.5394197
117.7018536
128.4816847
139.9450002
152.2265848
165.5578717
4.176213301
4.354622041
4.707699976
5.189129451
5.768745383
6.425775416
7.152000532
7.954251438
8.853793959
9.88425454
11.06579952
12.36649279
13.73017315
15.13610389
16.5972499
18.13889061
19.78731162
21.56809611
23.50802218
25.63761607
27.99331596
30.61891686
33.56615855
36.89416171
40.6675061
44.95290907
49.81462812
55.30909588
61.47970096
68.35284818
75.93636489
84.22090172
93.1843414
102.7985832
113.0376141
123.8858922
135.3469506
147.4558061
160.3034694
174.0632915
4.160349397
4.340133976
4.696324695
5.182388124
5.767756242
6.431242615
7.164548748
7.975140086
8.885881648
9.933085995
11.13804788
12.46384753
13.848962
15.27524585
16.76019395
18.33186789
20.01786331
21.84464059
23.84011155
26.03657552
28.47314153
31.19738556
34.26612373
37.74490609
41.70596276
46.22450039
51.37339726
57.21685253
63.80407476
71.16438597
79.30504848
88.21256512
97.85734588
108.2006933
119.2023365
130.8266534
143.0469383
155.8522052
169.2692148
183.3935404
4.145196158
4.326375478
4.685700603
5.176426215
5.767584927
6.437558753
7.177936628
7.996801932
8.918671608
9.98274196
11.21156046
12.56266394
13.9689091
15.4155722
16.9249952
18.52791669
20.25312585
22.12796039
24.18158303
26.44829013
28.97021589
31.79925335
34.99808079
38.63976051
42.80557273
47.58089651
53.0490668
59.28381971
66.34162427
74.25558376
83.03252952
92.65418332
103.0821056
114.264761
126.1439045
138.6569997
151.7341888
165.2962133
179.2750146
193.6626785
4.130769917
4.31336548
4.675848941
5.171268086
5.768261911
6.444762839
7.192208257
8.019271579
8.952164636