/*--------------------------------*- C++ -*----------------------------------*\
| =========                 |                                                 |
| \\      /  F ield         | foam-extend: Open Source CFD                    |
|  \\    /   O peration     | Version:     3.2                                |
|   \\  /    A nd           | Web:         http://www.foam-extend.org         |
|    \\/     M anipulation  | For copyright notice see file Copyright         |
\*---------------------------------------------------------------------------*/
FoamFile
{
    version     2.0;
    format      ascii;
    class       volVectorField;
    location    "0.12";
    object      gradk;
}
// * * * * * * * * * * * * * * * * * * * * * * * * * * * * * * * * * * * * * //

dimensions      [0 1 -2 0 0 0 0];

internalField   nonuniform List<vector> 
18000
(
(4.422029301 611.2160891 0)
(8.85873391 630.6123494 0)
(12.24579748 667.1246109 0)
(14.85410802 711.9588315 0)
(17.26894133 762.0992042 0)
(19.78407619 816.5622478 0)
(22.51885506 875.0822335 0)
(25.5196933 937.6039718 0)
(28.80376213 1004.12096 0)
(32.37236519 1074.607812 0)
(36.21739154 1148.993556 0)
(40.32448881 1227.153189 0)
(44.67470803 1308.907479 0)
(49.24553044 1394.026775 5.34802445e-14)
(54.01167132 1482.236892 0)
(58.94581125 1573.22612 5.514108425e-14)
(64.01930242 1666.652798 0)
(69.20285191 1762.15307 0)
(74.46716682 1859.348552 0)
(79.78354549 1957.853649 1.224429804e-13)
(85.12439492 2057.282374 0)
(90.46366219 2157.254507 0)
(95.77717904 2257.400991 0)
(101.042914 2357.368532 0)
(106.2411455 2456.823352 0)
(111.3545611 2555.454142 0)
(116.3683031 2652.974237 0)
(121.2699762 2749.123091 0)
(126.0496112 2843.667128 0)
(130.6996228 2936.400035 0)
(135.2147253 3027.142612 0)
(139.5917668 3115.742212 0)
(143.8293528 3202.071845 0)
(147.9269146 3286.028906 0)
(151.8825959 3367.533396 0)
(155.6890784 3446.525352 0)
(159.3313499 3522.961546 0)
(162.9194916 3596.820808 0)
(170.1618488 3668.283323 -7.163160661e-14)
(267.3192214 3741.083655 0)
(0.4014283755 143.5977576 0)
(1.569190961 126.8427428 0)
(2.743714412 100.64461 0)
(3.485934347 69.55441893 0)
(4.073910152 35.02116746 0)
(4.624648357 -2.591889971 0)
(5.189202072 -43.27538051 0)
(5.789712318 -87.09435666 0)
(6.437510225 -134.1048744 0)
(7.138904192 -184.3205615 0)
(7.89767652 -237.701087 0)
(8.716146765 -294.1508201 0)
(9.595627371 -353.5221242 0)
(10.53661545 -415.6208542 0)
(11.5388637 -480.2130044 0)
(12.60140037 -547.0319592 0)
(13.72253481 -615.7859954 0)
(14.8998683 -686.1657624 0)
(16.13031997 -757.8515049 0)
(17.41017296 -830.5198263 0)
(18.73513992 -903.8498373 0)
(20.10044536 -977.5285679 0)
(21.5009216 -1051.255569 0)
(22.93111262 -1124.746679 0)
(24.38538314 -1197.73695 -3.592711623e-14)
(25.85802766 -1269.982799 0)
(27.34337842 -1341.263413 0)
(28.83591054 -1411.381532 0)
(30.33034081 -1480.16367 0)
(31.82172969 -1547.459866 0)
(33.30558938 -1613.143067 0)
(34.77802018 -1677.108189 4.918478317e-14)
(36.23592209 -1739.270876 -5.162994321e-14)
(37.67736561 -1799.565901 0)
(39.10232171 -1857.94498 -2.850408558e-14)
(40.51464296 -1914.373453 0)
(41.93445886 -1968.824644 0)
(43.53636501 -2021.269565 0)
(47.46742454 -2071.711413 3.499239645e-14)
(79.33542745 -2121.876032 0)
(0.1599591653 46.24659514 0)
(0.802596968 45.69124725 1.636373222e-13)
(1.483985924 42.41869572 -1.070005183e-13)
(1.909092904 38.03286002 0)
(2.223801958 33.02490765 0)
(2.492788968 27.54809194 0)
(2.74329047 21.61764885 0)
(2.988064996 15.21301207 0)
(3.233731743 8.305635356 0)
(3.483894153 0.869330321 0)
(3.740653313 -7.115999415 0)
(4.005292038 -15.66317001 0)
(4.278611635 -24.7774874 0)
(4.561113832 -34.45688231 2.552474241e-14)
(4.853099075 -44.69218619 0)
(5.154716413 -55.46747749 0)
(5.465985647 -66.76048868 0)
(5.786804246 -78.5430821 0)
(6.116947306 -90.78180152 0)
(6.456066175 -103.438499 0)
(6.803688592 -116.4710308 0)
(7.159221904 -129.834006 0)
(7.521960242 -143.4795693 0)
(7.891095141 -157.3581955 0)
(8.265729653 -171.4194734 0)
(8.644894932 -185.6128609 0)
(9.02756927 -199.8883909 0)
(9.412699117 -214.1973176 0)
(9.799220907 -228.4926933 0)
(10.18608595 -242.7298665 0)
(10.57228766 -256.8669081 0)
(10.95689451 -270.8649669 0)
(11.33909774 -284.6885731 0)
(11.71829903 -298.3059128 0)
(12.09437117 -311.6890973 0)
(12.46898215 -324.8143382 0)
(12.8555632 -337.6616753 0)
(13.35634253 -350.214941 0)
(14.9090273 -362.5135056 3.418791976e-14)
(24.78683162 -375.5325617 0)
(0.2593095611 16.90395018 0)
(0.7661542007 17.73176316 0)
(1.257112471 17.41239069 1.04540572e-13)
(1.584204495 16.63551202 0)
(1.832923479 15.65755618 0)
(2.043003794 14.56663499 0)
(2.230918386 13.38253986 0)
(2.4054581 12.10560244 0)
(2.57142477 10.72974952 0)
(2.731566636 9.248089265 0)
(2.887528691 7.654837243 -4.968425976e-14)
(3.040317744 5.945905187 0)
(3.190557815 4.118996361 2.474370825e-14)
(3.338643475 2.173519791 0)
(3.484834721 0.1104519607 0)
(3.629313775 -2.067804397 0)
(3.772216339 -4.357552212 0)
(3.913646227 -6.753923732 0)
(4.053680217 -9.251000305 0)
(4.192368118 -11.84193212 0)
(4.329731013 -14.51906072 0)
(4.465759527 -17.27404478 0)
(4.60041328 -20.09798888 0)
(4.73362157 -22.98157405 -3.29452436e-14)
(4.86528554 -25.91518781 -1.71470867e-14)
(4.995281389 -28.88905247 0)
(5.123464724 -31.8933487 -1.865616873e-14)
(5.249675925 -34.91833332 0)
(5.373746138 -37.95444898 0)
(5.495505382 -40.99242334 0)
(5.614793295 -44.02335693 0)
(5.73147766 -47.03879355 0)
(5.84549892 -50.03076342 0)
(5.957007995 -52.99176529 0)
(6.066916437 -55.91458882 0)
(6.179300303 -58.79164999 2.861709254e-14)
(6.313957137 -61.61315932 0)
(6.564533446 -64.36365748 0)
(7.460802442 -67.03994871 1.670096904e-14)
(11.4323376 -69.9622596 0)
(0.3831205443 5.351922774 0)
(0.8569887413 6.173298629 1.561997533e-13)
(1.258443888 6.478517002 0)
(1.544009959 6.555678686 0)
(1.771182198 6.543100377 0)
(1.966093755 6.488864588 0)
(2.139514986 6.4058838 0)
(2.298072746 6.296059275 0)
(2.445621685 6.157222931 0)
(2.58455445 5.986477328 0)
(2.71640345 5.781315948 0)
(2.842167522 5.539976525 -2.413443504e-14)
(2.962506703 5.26147755 0)
(3.077871448 4.945546944 0)
(3.18858967 4.59252503 0)
(3.2949226 4.203271859 0)
(3.397097314 3.779086129 0)
(3.495322778 3.321634945 0)
(3.589795497 2.832891681 0)
(3.680699581 2.315079725 -2.789137084e-14)
(3.768204317 1.770620606 0)
(3.852461255 1.202085909 0)
(3.93360203 0.6121526947 0)
(4.011737153 0.003562317838 0)
(4.086956019 -0.620917215 0)
(4.159327829 -1.258525509 0)
(4.228903578 -1.906540398 0)
(4.295719178 -2.562305078 0)
(4.3598 -3.223251338 0)
(4.421169454 -3.886917872 0)
(4.479866286 -4.550961235 0)
(4.535986611 -5.213150968 0)
(4.58980097 -5.871327601 0)
(4.642105627 -6.523264337 0)
(4.695401979 -7.166289563 0)
(4.757849634 -7.796306728 2.79591843e-14)
(4.858398886 -8.405764137 0)
(5.094998833 -8.980820316 3.097951098e-14)
(5.851327098 -9.51098284 0)
(8.325766571 -10.10775214 0)
(0.4854068276 -0.4518215018 0)
(0.9652958697 0.1934493813 0)
(1.327888401 0.646704713 0)
(1.596829267 0.9964330743 7.774488863e-14)
(1.818305627 1.309400007 6.596018182e-14)
(2.011198148 1.606887234 0)
(2.183331578 1.893963097 0)
(2.340125591 2.170195662 0)
(2.48491454 2.433163591 0)
(2.619928325 2.680332447 0)
(2.746678416 2.909615003 0)
(2.866200063 3.119513243 0)
(2.979207518 3.309078424 0)
(3.086208655 3.477823074 0)
(3.18758824 3.625634043 0)
(3.283664158 3.752700828 0)
(3.374721187 3.859458968 0)
(3.461027955 3.946544397 0)
(3.542842898 4.014754959 0)
(3.620414171 4.065016728 0)
(3.693976808 4.098353958 0)
(3.763749306 4.11586224 0)
(3.82993094 4.118684706 -3.025769387e-14)
(3.892700079 4.107991155 0)
(3.952213737 4.084960006 0)
(4.008608089 4.050762824 0)
(4.062000088 4.006551314 1.780821704e-14)
(4.112490397 3.95344665 0)
(4.160168493 3.892531537 1.94664324e-14)
(4.205124207 3.824846527 0)
(4.247475973 3.75139484 0)
(4.287447461 3.673167536 0)
(4.325587024 3.591217322 0)
(4.363395253 3.506849681 0)
(4.405206009 3.422068161 -2.597186119e-14)
(4.463499673 3.340551232 0)
(4.575578102 3.269271108 0)
(4.845214788 3.220058882 0)
(5.595542442 3.203100216 0)
(7.630559201 3.173844008 0)
(0.5648573393 -3.674288501 0)
(1.0678843 -3.190281813 0)
(1.420519209 -2.721200924 0)
(1.687422195 -2.276878191 7.595753028e-14)
(1.91176952 -1.835181722 0)
(2.10897939 -1.392524838 0)
(2.285556638 -0.9503195843 0)
(2.446329132 -0.5117375813 0)
(2.594401284 -0.08028799315 0)
(2.73197271 0.3410510905 0)
(2.860595011 0.7499853841 0)
(2.981364436 1.144863163 4.607497546e-14)
(3.095053708 1.524552163 -2.307606508e-14)
(3.202220587 1.88831805 -2.325719464e-14)
(3.303292167 2.235729427 0)
(3.398624083 2.56659076 0)
(3.488536838 2.880895771 0)
(3.573334209 3.178793303 0)
(3.6533097 3.460560022 0)
(3.728746364 3.726576967 0)
(3.799913653 3.977308657 0)
(3.867063663 4.21328442 0)
(3.930428167 4.43508187 0)
(3.990216728 4.643312537 0)
(4.046616098 4.838609538 0)
(4.099790616 5.021617117 0)
(4.149883878 5.192981956 0)
(4.197022266 5.353346309 3.636222728e-14)
(4.241322496 5.503343738 0)
(4.282910692 5.643599762 -1.991477523e-14)
(4.321971809 5.774743471 0)
(4.358881128 5.897444536 0)
(4.394559079 6.012506743 0)
(4.431403714 6.121083883 0)
(4.475806417 6.225125845 -2.537476698e-14)
(4.544421127 6.328227278 0)
(4.681407027 6.436800865 0)
(4.994932303 6.560860044 1.47857222e-14)
(5.776938715 6.709649721 -1.557537959e-14)
(7.658835454 6.864748315 0)
(0.6249104988 -5.559187915 0)
(1.158689194 -5.204204425 -1.456724129e-13)
(1.519232962 -4.764214723 0)
(1.793836227 -4.296028745 0)
(2.0267283 -3.805844353 -6.29621898e-14)
(2.232229391 -3.30198831 0)
(2.41655386 -2.790952637 0)
(2.584371807 -2.278378431 0)
(2.738777494 -1.768966928 0)
(2.882047924 -1.266320378 0)
(3.015828857 -0.7730920963 0)
(3.141301215 -0.291182196 0)
(3.259301698 0.1780595309 0)
(3.370432715 0.6336735979 0)
(3.475152457 1.07498118 0)
(3.573840064 1.501515472 2.342816292e-14)
(3.666836204 1.912979678 -2.39357381e-14)
(3.754463782 2.309219577 0)
(3.83703525 2.690202997 0)
(3.914852516 3.056002324 -2.601158583e-14)
(3.98820355 3.40677859 0)
(4.057358364 3.742766799 0)
(4.122565857 4.064262587 -2.8882435e-14)
(4.184051832 4.371610314 3.001847894e-14)
(4.242018357 4.665192602 0)
(4.296644197 4.945421263 0)
(4.348086717 5.212729629 1.69988061e-14)
(4.396486348 5.467566548 -1.776312908e-14)
(4.441977186 5.710393079 0)
(4.484714991 5.941684641 -1.945693372e-14)
(4.524950402 6.161945195 0)
(4.563219226 6.37174795 0)
(4.600833648 6.571831481 0)
(4.641098395 6.763306716 0)
(4.692359541 6.948054111 -2.479140003e-14)
(4.774981946 7.129417921 -2.607482889e-14)
(4.93892047 7.313091653 0)
(5.297202449 7.507700502 0)
(6.128255135 7.72245434 1.521730097e-14)
(7.989714067 7.953451729 0)
(0.6695710008 -6.635179961 0)
(1.237034188 -6.379238786 1.423233977e-13)
(1.616838362 -5.982855688 0)
(1.906034308 -5.522268276 -7.250514329e-14)
(2.151666985 -5.021283273 0)
(2.368416829 -4.496169276 5.489484668e-14)
(2.562865502 -3.95727473 0)
(2.739839164 -3.412286511 0)
(2.902593844 -2.866987093 0)
(3.053575751 -2.325591334 0)
(3.194575579 -1.79112121 0)
(3.326883843 -1.265729858 0)
(3.45140948 -0.7509770587 0)
(3.568797607 -0.248027121 0)
(3.679530081 0.2422259949 0)
(3.783999796 0.7190876057 0)
(3.882557361 1.182024139 0)
(3.975535043 1.63064159 0)
(4.063255324 2.064670761 0)
(4.146030962 2.483954511 0)
(4.224161333 2.888435379 0)
(4.29792806 3.278143355 0)
(4.367591603 3.653184071 0)
(4.433389098 4.013727747 0)
(4.495533638 4.359999048 0)
(4.554214755 4.692268013 0)
(4.609600732 5.010842194 0)
(4.661844503 5.316060517 0)
(4.711098444 5.608290106 0)
(4.757553367 5.887929037 0)
(4.80153851 6.155421657 0)
(4.843772455 6.4113 0)
(4.885983536 6.656276655 -2.193636081e-14)
(4.932374285 6.891434275 0)
(4.99310225 7.118571838 -2.422144465e-14)
(5.091805538 7.340783317 0)
(5.283489362 7.563202899 0)
(5.686393935 7.793650619 0)
(6.575265496 8.041778089 0)
(8.476930557 8.312573269 3.133694781e-14)
(0.70217694 -7.177368037 0)
(1.303762866 -6.995947332 0)
(1.710025967 -6.645556381 0)
(2.018760401 -6.207047711 0)
(2.280340781 -5.71454593 -6.010046108e-14)
(2.510663051 -5.189422095 0)
(2.717088093 -4.644844246 0)
(2.904825421 -4.090097068 0)
(3.077427505 -3.531854613 0)
(3.237587347 -2.974853882 0)
(3.387285802 -2.422434653 0)
(3.527945118 -1.876969603 0)
(3.66055249 -1.340204566 0)
(3.785791597 -0.8134910366 0)
(3.904158542 -0.2979242581 0)
(4.016048703 0.2055857514 0)
(4.12181155 0.6962821178 0)
(4.221778777 1.173547164 0)
(4.316274398 1.636894434 0)
(4.405614931 2.085961062 0)
(4.490105282 2.5204988 2.565863983e-14)
(4.570033822 2.940363711 0)
(4.645668516 3.345505178 0)
(4.717254446 3.735954874 0)
(4.785012916 4.11181613 0)
(4.849141981 4.473254108 0)
(4.909819273 4.820487104 0)
(4.967209588 5.153779653 0)
(5.021484222 5.473438777 1.77370882e-14)
(5.072871277 5.779816296 0)
(5.121782002 6.073323378 0)
(5.169119387 6.354469475 0)
(5.217017556 6.623947774 0)
(5.270529738 6.882805563 0)
(5.34149403 7.132751822 0)
(5.456586482 7.376672203 0)
(5.675724244 7.619347689 0)
(6.123619945 7.868298257 0)
(7.079051368 8.134109892 0)
(9.065771449 8.428236181 1.530825504e-14)
(0.7256243317 -7.34960667 0)
(1.360470207 -7.222292359 0)
(1.797557521 -6.914279696 0)
(2.129304247 -6.503326058 0)
(2.409266991 -6.028816788 0)
(2.65499919 -5.515111376 -5.239979119e-14)
(2.874880714 -4.977299555 0)
(3.074665392 -4.425815438 0)
(3.258306686 -3.867992127 0)
(3.428809581 -3.30895018 4.283525982e-14)
(3.588384352 -2.752255835 -4.221937038e-14)
(3.73860293 -2.200438752 0)
(3.880532755 -1.655389637 0)
(4.01488799 -1.118622689 -2.119108957e-14)
(4.142166197 -0.5914219798 0)
(4.262751646 -0.07490762832 2.184918312e-14)
(4.37698051 0.429942481 0)
(4.485174166 0.9222896228 0)
(4.587650994 1.401435178 0)
(4.684726444 1.866819237 2.425849198e-14)
(4.776708079 2.318015319 0)
(4.863889703 2.754721719 0)
(4.946546671 3.176750713 0)
(5.024932832 3.584016734 0)
(5.099279276 3.976524398 0)
(5.169794864 4.354357072 0)
(5.236669654 4.717666574 0)
(5.300084438 5.066664825 0)
(5.360235053 5.401618889 0)
(5.417394361 5.722852227 -1.814560149e-14)
(5.472064536 6.030757986 -1.901743277e-14)
(5.525340338 6.325835327 0)
(5.579758383 6.608768815 0)
(5.641190364 6.880585492 0)
(5.723068642 7.142940356 2.312054262e-14)
(5.854985094 7.398605274 2.431747267e-14)
(6.101821933 7.652214336 0)
(6.59588824 7.911322849 0)
(7.625347925 8.187587701 0)
(9.726509327 8.497266207 -2.991263518e-14)
(0.7424380618 -7.266991055 0)
(1.409084393 -7.176849755 1.327312771e-13)
(1.879366394 -6.904726787 8.67914193e-14)
(2.236426152 -6.521735774 0)
(2.53654103 -6.069076264 -5.736880232e-14)
(2.799084701 -5.572524873 0)
(3.033574578 -5.048327344 4.723840746e-14)
(3.246418085 -4.507642225 0)
(3.442049254 -3.958213929 4.292520839e-14)
(3.623838836 -3.405383959 0)
(3.794258856 -2.852831597 0)
(3.955042624 -2.303164887 0)
(4.107333123 -1.758369322 0)
(4.25186018 -1.220094874 0)
(4.389104071 -0.6898043521 0)
(4.519419758 -0.1688281421 -2.134686947e-14)
(4.643114954 0.3416302183 0)
(4.760489458 0.8405061689 0)
(4.87184858 1.32688676 0)
(4.977502515 1.800016891 0)
(5.077759825 2.259298083 2.449241503e-14)
(5.172919911 2.704281177 2.536403812e-14)
(5.263266919 3.134654969 0)
(5.349065603 3.550232649 0)
(5.430559404 3.950937468 0)
(5.507970755 4.336788737 0)
(5.581505075 4.707889034 0)
(5.651362317 5.064413636 1.618510163e-14)
(5.717766379 5.406603695 0)
(5.781038839 5.73476594 0)
(5.841776858 6.049284477 1.858022118e-14)
(5.90126993 6.350655183 0)
(5.962456328 6.639561894 0)
(6.032019492 6.917028265 -2.1490081e-14)
(6.124981319 7.184698768 0)
(6.273910813 7.445334187 0)
(6.54901478 7.703622656 0)
(7.091605796 7.96746262 0)
(8.203835447 8.249823643 -2.773087575e-14)
(10.44605068 8.571083016 0)
(0.7548050436 -7.017469084 0)
(1.451636822 -6.950818568 -2.593595591e-13)
(1.956087545 -6.707102967 0)
(2.339827915 -6.349679057 0)
(2.661289378 -5.919331348 5.604989119e-14)
(2.941650329 -5.442126205 0)
(3.191602275 -4.934838276 0)
(3.418276536 -4.408971136 0)
(3.626647465 -3.872440235 0)
(3.820495569 -3.33064051 0)
(4.00257994 -2.78724344 0)
(4.174799585 -2.244851333 0)
(4.338360065 -1.705492377 0)
(4.493983835 -1.170926552 0)
(4.642108135 -0.6427883741 0)
(4.783035426 -0.1226221803 0)
(4.917027007 0.3881352946 0)
(5.044349103 0.8881871938 0)
(5.165287432 1.37640382 0)
(5.280144888 1.851837827 0)
(5.389232341 2.313727209 0)
(5.492858395 2.761488699 0)
(5.591321 3.19470478 0)
(5.684901541 3.613107117 0)
(5.773861731 4.01655853 0)
(5.858443402 4.405035182 0)
(5.938872931 4.778610193 0)
(6.015374898 5.137439967 0)
(6.088206894 5.481754884 0)
(6.157745483 5.811857238 0)
(6.22469035 6.128132025 0)
(6.290535342 6.43108107 1.90409957e-14)
(6.358633892 6.721400003 -1.998759501e-14)
(6.436505403 7.000133137 0)
(6.540820104 7.268964829 0)
(6.707299153 7.53074542 0)
(7.011993334 7.790393697 0)
(7.606689924 8.0564097 2.571973432e-14)
(8.811554904 8.343310119 0)
(11.21896294 8.675361519 0)
(0.7645304188 -6.669411159 0)
(1.490034757 -6.615799212 0)
(2.028693315 -6.393338365 0)
(2.439769019 -6.057858778 0)
(2.783293211 -5.648422657 -5.476130173e-14)
(3.082131831 -5.190633649 0)
(3.348136597 -4.701314486 0)
(3.589205708 -4.191999508 0)
(3.810898952 -3.670562669 0)
(4.017442679 -3.142297577 0)
(4.211901459 -2.610754018 0)
(4.396335957 -2.078450378 0)
(4.571991576 -1.547412267 0)
(4.739550733 -1.019491494 0)
(4.899373972 -0.4964945244 0)
(5.051682726 0.01981079828 0)
(5.19667133 0.5277432271 0)
(5.33456023 1.025765652 0)
(5.465610659 1.512529805 0)
(5.590119045 1.986901354 0)
(5.708403452 2.447966762 0)
(5.82078912 2.895026277 0)
(5.927596493 3.327577762 0)
(6.029132506 3.745295381 0)
(6.125685517 4.148006171 0)
(6.217524046 4.535666825 0)
(6.304901381 4.908342368 0)
(6.388071363 5.266188331 0)
(6.467328989 5.60943833 0)
(6.543109608 5.938400133 -1.692264868e-14)
(6.616221304 6.253466165 0)
(6.688374375 6.555149501 -1.860324237e-14)
(6.763364433 6.844166235 0)
(6.849608578 7.121602234 0)
(6.965567141 7.389230273 0)
(7.150444596 7.650090731 0)
(7.486906326 7.909516076 0)
(8.139008757 8.176900607 0)
(9.449118543 8.468694066 -2.647046466e-14)
(12.04867197 8.813358161 2.789662369e-14)
(0.7730044607 -6.273692968 6.867529704e-13)
(1.525896778 -6.225717396 -1.237856332e-13)
(2.098227886 -6.018477051 0)
(2.536786248 -5.701139931 0)
(2.902718889 -5.310404847 -5.350233704e-14)
(3.220415889 -4.870963783 -4.774473815e-14)
(3.502849608 -4.399347594 0)
(3.758711264 -3.906880796 4.162558945e-14)
(3.994181676 -3.401222874 -4.0032193e-14)
(4.213963378 -2.88743523 0)
(4.421438424 -2.368848451 0)
(4.618816079 -1.847832371 3.825225407e-14)
(4.807348013 -1.326377394 0)
(4.987633497 -0.8064205769 -3.861706315e-14)
(5.159914635 -0.289950114 3.912413133e-14)
(5.324298547 0.2210265318 0)
(5.480890639 0.7245690787 0)
(5.629854771 1.218892227 0)
(5.771426292 1.702430141 0)
(5.905900865 2.173871799 0)
(6.03361425 2.632170792 0)
(6.154921562 3.076536158 0)
(6.270179969 3.50641088 0)
(6.379735775 3.921443545 0)
(6.483916304 4.321457306 0)
(6.583026875 4.706419287 0)
(6.677355218 5.076412696 0)
(6.767189499 5.431613685 -3.01885599e-14)
(6.852865462 5.772275174 0)
(6.934880593 6.098721141 0)
(7.014158329 6.411357866 0)
(7.09264314 6.710714299 0)
(7.17461591 6.997534707 0)
(7.269490452 7.272966167 -2.004172146e-14)
(7.397736283 7.538916483 0)
(7.602518332 7.798713915 0)
(7.974139806 8.058288456 -4.663447098e-14)
(8.691105654 8.328243685 0)
(10.12266325 8.627448112 0)
(12.94613229 8.989219187 0)
(0.781209912 -5.865321642 0)
(1.560468766 -5.818214615 0)
(2.165631864 -5.621594813 0)
(2.631491359 -5.319029298 0)
(3.019914283 -4.944657084 0)
(3.356642077 -4.522036614 0)
(3.655720435 -4.067188335 0)
(3.926651537 -3.591056609 0)
(4.176267853 -3.100955618 0)
(4.409774776 -2.601611577 0)
(4.630877922 -2.096058752 0)
(4.841912443 -1.586470901 0)
(5.044090897 -1.074786098 0)
(5.237875281 -0.5630336091 0)
(5.423339628 -0.05340363981 0)
(5.600439676 0.4518339625 0)
(5.769170092 0.9504627256 0)
(5.929630692 1.440442294 0)
(6.082035184 1.919994453 0)
(6.226691237 2.387648441 0)
(6.363970529 2.842252009 0)
(6.494278976 3.282957629 0)
(6.618031769 3.709192776 0)
(6.735634329 4.120621572 0)
(6.847469682 4.517103321 2.594228449e-14)
(6.953892657 4.898652076 0)
(7.055233645 5.265400238 0)
(7.151819035 5.617568741 0)
(7.244026015 5.955446495 3.085362954e-14)
(7.332414387 6.279383089 0)
(7.418028135 6.589802071 0)
(7.50306718 6.887248623 0)
(7.592357117 7.172497992 0)
(7.696450335 7.446773507 0)
(7.838137966 7.712161979 -2.058225583e-14)
(8.065205918 7.97238003 0)
(8.476953969 8.234155228 0)
(9.269094997 8.509664911 0)
(10.84338971 8.820816454 0)
(13.93087523 9.206783659 0)
(0.7897746876 -5.46594753 -6.555389874e-13)
(1.594622658 -5.416996436 0)
(2.231657447 -5.227787921 0)
(2.724448213 -4.937308477 0)
(3.135271606 -4.577207716 5.107057321e-14)
(3.491060101 -4.169842323 0)
(3.806889482 -3.730597139 0)
(4.093089136 -3.269924097 0)
(4.357172497 -2.794698345 0)
(4.60487259 -2.309233603 0)
(4.840219074 -1.816210018 0)
(5.065639915 -1.317574389 0)
(5.282250438 -0.8152105035 0)
(5.490309862 -0.3112597985 0)
(5.689667213 0.1918556787 0)
(5.880087461 0.6915756166 0)
(6.061434999 1.185389212 0)
(6.23374406 1.670997167 0)
(6.397219435 2.146420441 0)
(6.552203596 2.610054521 2.109879918e-14)
(6.699132997 3.06067931 -2.180351732e-14)
(6.838495692 3.497437388 0)
(6.970795613 3.919792316 0)
(7.096524868 4.327476474 0)
(7.216144664 4.720435647 0)
(7.330075448 5.098775769 0)
(7.438699465 5.462715713 0)
(7.542383978 5.812549327 0)
(7.641545398 6.148619903 0)
(7.736802571 6.471311684 -3.156423755e-14)
(7.829323404 6.781066818 0)
(7.921588536 7.078443677 0)
(8.019045366 7.364247125 -1.821195211e-14)
(8.133572739 7.639787595 1.913079427e-14)
(8.290697199 7.907371982 -2.010906886e-14)
(8.543690696 8.17120692 0)
(9.002598765 8.439029676 0)
(9.883816831 8.724994501 4.686972789e-14)
(11.62853845 9.054769656 0)
(15.03108809 9.474634872 0)
(0.7990505245 -5.087138083 0)
(1.628910635 -5.035080373 0)
(2.296852067 -4.851222773 0)
(2.816114764 -4.570848532 5.881115764e-14)
(3.249147082 -4.22332628 0)
(3.623935712 -3.829835169 0)
(3.956554204 -3.405063599 0)
(4.258178186 -2.958901194 0)
(4.537032773 -2.497718643 0)
(4.799402832 -2.025359856 0)
(5.049636979 -1.54410849 0)
(5.290211614 -1.055667342 0)
(5.522072935 -0.5618770052 0)
(5.745200253 -0.06502214812 0)
(5.959154159 0.4322058442 0)
(6.163468936 0.9269247159 0)
(6.357863988 1.416312181 0)
(6.542315404 1.897811173 0)
(6.717043655 2.369261995 0)
(6.882462369 2.828963839 0)
(7.03911573 3.275680186 0)
(7.187618793 3.708604797 0)
(7.328606965 4.127303247 0)
(7.462696311 4.531642206 0)
(7.590455547 4.921715778 0)
(7.712390522 5.29777587 0)
(7.828945004 5.660171585 0)
(7.940527323 6.009301524 0)
(8.047586196 6.345582768 0)
(8.150790653 6.669441831 0)
(8.251432034 6.98133727 0)
(8.352299705 7.281832501 0)
(8.459558607 7.571754667 0)
(8.586653879 7.852506341 0)
(8.762378503 8.126651655 0)
(9.046595847 8.398989977 0)
(9.562312435 8.678492673 0)
(10.55095649 8.981729921 0)
(12.5016967 9.338940315 0)
(16.28422008 9.8049525 0)
(0.8091950828 -4.733699146 0)
(1.663642238 -4.678198833 2.255777155e-13)
(2.361582221 -4.498479785 1.475026122e-13)
(2.906829539 -4.226833499 -1.149181712e-13)
(3.361823975 -3.890610499 0)
(3.755497336 -3.509884399 0)
(4.104902949 -3.098626237 0)
(4.422087378 -2.666121216 0)
(4.716021438 -2.218189247 0)
(4.993566396 -1.758160701 0)
(5.259378913 -1.287891073 0)
(5.515926881 -0.8088324891 0)
(5.763900555 -0.3228038064 0)
(6.002910343 0.1677272134 0)
(6.232159525 0.659756823 0)
(6.450913387 1.15004802 0)
(6.658739455 1.635452983 0)
(6.855575756 2.113165399 0)
(7.041699031 2.580876199 0)
(7.217648267 3.036839868 -2.013982603e-14)
(7.384136552 3.479870997 4.162502727e-14)
(7.541968034 3.90929245 0)
(7.691967343 4.324854145 0)
(7.83492367 4.726637974 0)
(7.971550717 5.11496082 0)
(8.102463689 5.490284552 0)
(8.228177781 5.853139198 0)
(8.34913931 6.204063973 0)
(8.465816477 6.543570458 0)
(8.578912697 6.872133927 0)
(8.689837181 7.190223996 0)
(8.801718254 7.498396238 0)
(8.921553882 7.797486918 0)
(9.064651834 8.088989565 0)
(9.263731675 8.375757065 0)
(9.586621213 8.663280883 0)
(10.17202853 8.961993224 0)
(11.29176646 9.291334056 -4.473942606e-14)
(13.49340619 9.686964486 0)
(17.73713833 10.21380324 0)
(0.8202418711 -4.406456622 0)
(1.698959322 -4.347711268 -2.203916771e-13)
(2.426072447 -4.17149373 0)
(2.996821916 -3.907664222 1.12276199e-13)
(3.473503078 -3.581824036 0)
(3.885911796 -3.213032171 0)
(4.252078811 -2.814543596 0)
(4.584953739 -2.395013474 0)
(4.894291709 -1.959676264 -3.563726226e-14)
(5.187555887 -1.511313252 0)
(5.469693641 -1.051326746 -3.42454331e-14)
(5.743093332 -0.5809189709 0)
(6.008086162 -0.1019166306 0)
(6.263812626 0.3829826617 0)
(6.509045575 0.8704160294 0)
(6.742747118 1.356759391 0)
(6.964337383 1.838530388 0)
(7.173753439 2.312691557 0)
(7.37138976 2.776829366 0)
(7.557987745 3.2292219 0)
(7.734513491 3.668820878 0)
(7.90204359 4.095174994 0)
(8.061667806 4.508318586 0)
(8.214411655 4.908645361 0)
(8.361180661 5.296782367 0)
(8.502727809 5.673475285 0)
(8.639649435 6.039492574 0)
(8.772422486 6.395553849 0)
(8.901514481 6.742287219 0)
(9.027638833 7.080222273 0)
(9.152310444 7.409831479 0)
(9.279028153 7.731645238 0)
(9.415758863 8.046490055 0)
(9.58002985 8.355942443 0)
(9.80928708 8.663167799 0)
(10.18098661 8.974440215 0)
(10.85285101 9.301869226 0)
(12.13352594 9.668206067 0)
(14.64148106 10.11537224 0)
(19.44604602 10.7198961 0)
(0.8321519456 -4.104245082 2.986513544e-13)
(1.734896146 -4.042722364 0)
(2.490443733 -3.869735354 0)
(3.086231252 -3.613149353 0)
(3.58430766 -3.297066567 0)
(4.015278269 -2.939624712 -8.305187646e-14)
(4.398164623 -2.553374883 0)
(4.746859946 -2.146325605 0)
(5.071947806 -1.723097812 0)
(5.381520072 -1.285892601 3.394621072e-14)
(5.680790175 -0.8356379912 -3.345812887e-14)
(5.971979976 -0.3732926028 -3.32698597e-14)
(6.254940735 0.09927264517 0)
(6.528229829 0.5790778084 0)
(6.790113841 1.062351572 0)
(7.039224592 1.545052304 -3.46302078e-14)
(7.274854901 2.023360916 0)
(7.497000185 2.494038633 0)
(7.706260687 2.954628404 0)
(7.903685771 3.403519244 0)
(8.090606679 3.839906338 -1.986655288e-14)
(8.268481232 4.263680835 0)
(8.43876149 4.675279682 -2.134620477e-14)
(8.602788588 5.075520428 -2.218582326e-14)
(8.761717171 5.465440028 0)
(8.916471329 5.846151134 -4.814723461e-14)
(9.067737952 6.218724651 0)
(9.216012494 6.584104459 0)
(9.361733591 6.94305926 2.746636633e-14)
(9.505590897 7.296178834 -2.87601576e-14)
(9.649185515 7.64392914 0)
(9.796419288 7.98679553 0)
(9.956384665 8.325571779 0)
(10.14924733 8.661903155 1.743126718e-14)
(10.41812277 8.999281425 0)
(10.85205722 9.344837209 0)
(11.63168672 9.712544512 -2.028014224e-14)
(13.11005952 10.12885384 0)
(15.99114457 10.64268626 0)
(21.47569928 11.34350588 0)
(0.8448482082 -3.825137964 0)
(1.771421886 -3.761415177 0)
(2.554744555 -3.591609316 0)
(3.175126503 -3.341929626 1.071730728e-13)
(3.694294304 -3.03520021 0)
(4.143632163 -2.688724988 0)
(4.543181085 -2.314367827 0)
(4.907827535 -1.919478731 0)
(5.249033804 -1.508040742 0)
(5.575548756 -1.081646032 0)
(5.892818789 -0.640729694 0)
(6.20279418 -0.1860178047 3.250498455e-14)
(6.504705875 0.2805317745 0)
(6.796402686 0.7555989719 0)
(7.075568146 1.234952816 0)
(7.340487326 1.714106576 -3.38340582e-14)
(7.590366454 2.188910664 0)
(7.825346859 2.65596866 0)
(8.046355577 3.1128591 0)
(8.254890058 3.558189949 0)
(8.452791972 3.991527286 0)
(8.642038519 4.413240993 0)
(8.824565198 4.824305781 -2.085545483e-14)
(9.002125879 5.226088849 0)
(9.176193155 5.620147469 -4.512655241e-14)
(9.347901047 6.008052401 -2.352016406e-14)
(9.518036516 6.391246888 0)
(9.687096952 6.770947256 2.565283268e-14)
(9.85545616 7.148090057 0)
(10.02373719 7.523333423 -2.809896065e-14)
(10.19360083 7.897128888 0)
(10.36938552 8.269897237 3.088947749e-14)
(10.56148634 8.642375095 0)
(10.79318678 9.0162574 0)
(11.11435326 9.395364489 0)
(11.62786898 9.787732152 -1.882813607e-14)
(12.54173576 10.20933386 0)
(14.26202096 10.69060274 0)
(17.59471616 11.28799217 -2.197624494e-14)
(23.89773517 12.10481069 2.316026723e-14)
(0.8582362827 -3.567099674 0)
(1.808468215 -3.501773924 -2.055380145e-13)
(2.618973436 -3.335228159 0)
(3.263522939 -3.092278856 1.047091583e-13)
(3.803464976 -2.794661214 0)
(4.27095347 -2.458923641 0)
(4.687092094 -2.096260605 0)
(5.067819589 -1.713354303 -3.455829559e-14)
(5.425533946 -1.313527915 0)
(5.769670838 -0.8977374599 0)
(6.105866641 -0.4659085318 0)
(6.435674325 -0.0185506105 0)
(6.757542809 0.4422420574 0)
(7.068474693 0.9127459726 0)
(7.365494996 1.388217633 -3.248154112e-14)
(7.646540502 1.863701491 3.305621148e-14)
(7.910798147 2.334733728 0)
(8.158677877 2.797819711 0)
(8.391594414 3.250672467 0)
(8.611673994 3.69224824 1.835065953e-14)
(8.821451793 4.122631765 0)
(9.023595088 4.542825486 0)
(9.220669995 4.954491019 -2.037598686e-14)
(9.414959379 5.359681524 0)
(9.608335193 5.760592736 -2.204454533e-14)
(9.802186877 6.159350592 2.297943429e-14)
(9.997412475 6.557845583 0)
(10.19449201 6.957619454 0)
(10.39369273 7.359808775 0)
(10.59552125 7.765153341 0)
(10.80166642 8.174087442 -2.87719809e-14)
(11.01693927 8.586952196 3.017932682e-14)
(11.25323436 9.004405047 0)
(11.53748733 9.428169103 0)
(11.92751831 9.862382642 0)
(12.54253645 10.3160008 -3.679055252e-14)
(13.62281701 10.80705324 0)
(15.63689213 11.37007382 0)
(19.510728 12.06924395 2.147100994e-14)
(26.78780882 13.02193301 0)
(0.8722163781 -3.328265963 0)
(1.845946252 -3.261907935 0)
(2.683094565 -3.098771296 -6.565452566e-14)
(3.351395417 -2.86248439 0)
(3.911778347 -2.573852203 -8.679478996e-14)
(4.397176574 -2.248735969 0)
(4.829813348 -1.897678352 -3.57341228e-14)
(5.226748295 -1.526686266 0)
(5.601379163 -1.138403118 0)
(5.963859679 -0.733122981 0)
(6.319961555 -0.3102477429 0)
(6.67069117 0.129908121 0)
(7.013530346 0.5850569423 0)
(7.344485864 1.051002442 0)
(7.65985291 1.522434176 0)
(7.957238563 1.993908895 -3.229624773e-14)
(8.235911226 2.460676537 0)
(8.496714815 2.919221173 0)
(8.741759373 3.367509806 0)
(8.974026517 3.804996713 0)