/*--------------------------------*- C++ -*----------------------------------*\
| =========                 |                                                 |
| \\      /  F ield         | foam-extend: Open Source CFD                    |
|  \\    /   O peration     | Version:     3.2                                |
|   \\  /    A nd           | Web:         http://www.foam-extend.org         |
|    \\/     M anipulation  | For copyright notice see file Copyright         |
\*---------------------------------------------------------------------------*/
FoamFile
{
    version     2.0;
    format      ascii;
    class       volScalarField;
    location    "0.12";
    object      k;
}
// * * * * * * * * * * * * * * * * * * * * * * * * * * * * * * * * * * * * * //

dimensions      [0 2 -2 0 0 0 0];

internalField   nonuniform List<scalar> 
18000
(
0.2555696813
0.2735187138
0.3040166271
0.3408362816
0.3818686135
0.4264769248
0.4745230754
0.5260021634
0.5809273795
0.6392820313
0.7010013526
0.7659679373
0.8340134073
0.9049231091
0.9784424054
1.054283809
1.132134498
1.211663882
1.292530946
1.374391152
1.456902734
1.539732264
1.622559399
1.705080786
1.787013126
1.868095436
1.948090571
2.026786095
2.103994574
2.179553394
2.253324189
2.325191933
2.395063723
2.462867197
2.528548367
2.592068434
2.653398986
2.7125186
2.769501542
2.826755377
0.3686825907
0.3703119899
0.3767466822
0.385292209
0.3949974606
0.4054999837
0.4166671579
0.4284470908
0.4408195766
0.4537755214
0.4673080338
0.4814083817
0.4960640891
0.5112580504
0.5269681642
0.5431672582
0.5598232042
0.5768991775
0.5943540381
0.6121428199
0.630217313
0.64852672
0.667018365
0.6856384319
0.7043327059
0.7230472989
0.7417293355
0.7603275866
0.7787930395
0.7970793917
0.8151434781
0.8329456291
0.8504499855
0.8676248086
0.884442864
0.9008820317
0.9169268199
0.9325773217
0.9479433261
0.9644115773
0.4044656577
0.4051149326
0.4085287357
0.4132001333
0.4185221319
0.4242349706
0.4302102718
0.4363755809
0.4426857112
0.4491094083
0.4556231108
0.462207787
0.4688472107
0.4755269869
0.4822339835
0.4889559819
0.49568145
0.5023993832
0.5090991895
0.5157706043
0.5224036322
0.5289885126
0.5355157063
0.5419759032
0.5483600455
0.554659366
0.5608654353
0.5669702167
0.5729661238
0.578846079
0.5846035709
0.5902327102
0.5957282835
0.6010858141
0.6063016486
0.6113731731
0.6162998258
0.6210902755
0.6258145777
0.631082805
0.4177992576
0.418851796
0.4218223429
0.4257211575
0.430119625
0.43481843
0.4397013112
0.4446946431
0.4497479698
0.4548244289
0.4598958113
0.4649397828
0.4699382235
0.4748761997
0.4797413032
0.4845232093
0.4892133603
0.4938047198
0.4982915709
0.5026693408
0.506934447
0.5110841605
0.515116487
0.5190300637
0.5228240706
0.5264981569
0.5300523792
0.5334871505
0.5368031993
0.5400015358
0.5430834269
0.5460503777
0.5489041249
0.5516466558
0.5542803083
0.5568082013
0.5592360539
0.5615812229
0.5639119017
0.5665796418
0.422842382
0.4243974696
0.4274685771
0.4312991698
0.4355615869
0.4400920695
0.444783838
0.4495648318
0.4543832733
0.4592004198
0.4639864236
0.4687178102
0.4733758586
0.4779455331
0.4824147641
0.4867739452
0.491015562
0.495133899
0.4991247933
0.5029854203
0.5067141017
0.510310134
0.5137736363
0.5171054152
0.5203068475
0.523379779
0.5263264378
0.5291493612
0.5318513346
0.5344353423
0.5369045302
0.5392621844
0.5415117405
0.5436568635
0.5457017315
0.5476519812
0.5495177271
0.5513245268
0.5531460131
0.5552442713
0.423737385
0.4257076531
0.4290212508
0.433008995
0.4373964289
0.4420378158
0.4468312843
0.4517053238
0.4566070558
0.4614963831
0.4663422987
0.4711205006
0.4758117725
0.4804008749
0.484875777
0.4892271107
0.493447763
0.4975325534
0.5014779618
0.5052818903
0.508943452
0.5124627806
0.5158408619
0.5190793841
0.5221806083
0.525147256
0.5279824133
0.5306894499
0.5332719524
0.53573367
0.5380784774
0.5403103622
0.5424334649
0.5444522535
0.5463720459
0.5482005379
0.5499518915
0.5516589349
0.553401608
0.5554073819
0.422297961
0.4245907189
0.4281811419
0.4324131392
0.4370351352
0.441907598
0.4469295034
0.4520282776
0.4571493642
0.4622511166
0.4673012966
0.4722747141
0.4771515607
0.4819162409
0.4865565531
0.4910631048
0.4954288766
0.499648877
0.5037198524
0.5076400336
0.51140891
0.5150270277
0.5184958094
0.521817396
0.5249945085
0.5280303292
0.5309284
0.5336925373
0.5363267619
0.5388352453
0.5412222783
0.5434922786
0.5456498844
0.5477002542
0.5496498599
0.5515085508
0.5532944222
0.555046565
0.556850262
0.5589168081
0.4194150495
0.4219515634
0.4258147857
0.4303235677
0.435229154
0.4403899138
0.4457022819
0.4510910124
0.456499106
0.4618829709
0.4672089091
0.4724506812
0.4775877426
0.4826039914
0.4874868894
0.4922268371
0.4968167121
0.5012515058
0.5055280197
0.5096446002
0.5136009021
0.5173976772
0.5210365854
0.5245200296
0.5278510107
0.5310330029
0.5340698485
0.5369656682
0.5397247893
0.5423516929
0.5448509896
0.5472274509
0.5494861586
0.5516329322
0.5536753743
0.5556253919
0.5575046573
0.559357723
0.561275364
0.5634635915
0.4156197794
0.4183375704
0.4224554973
0.4272491207
0.4324592774
0.4379363806
0.4435715878
0.4492855428
0.4550180416
0.4607231122
0.466365331
0.4719172267
0.4773573704
0.4826690141
0.4878391403
0.4928577951
0.4977176013
0.5024133806
0.5069418391
0.5113012926
0.5154914222
0.5195130543
0.5233679647
0.527058706
0.5305884571
0.5339608929
0.5371800743
0.540250355
0.5431763082
0.5459626751
0.5486143504
0.5511364391
0.5535344653
0.55581492
0.5579865303
0.5600631553
0.5620697153
0.5640556392
0.5661172567
0.5684612524
0.4112631656
0.4141133043
0.4184628587
0.4235370083
0.4290576735
0.4348632045
0.4408373071
0.4468952844
0.4529730307
0.4590217751
0.4650041067
0.4708911408
0.4766604164
0.4822944006
0.4877794561
0.493105129
0.4982636401
0.5032494955
0.5080591646
0.5126907992
0.5171439823
0.5214195009
0.5255191438
0.5294455215
0.5332019097
0.5367921135
0.540220352
0.5434911612
0.5466093188
0.5495797941
0.5524077431
0.5550985899
0.5576582913
0.5600939955
0.5624155132
0.5646385482
0.5667910733
0.5689272391
0.5711496776
0.5736705794
0.4065979128
0.4095432245
0.4141011429
0.4194456287
0.4252745822
0.431411532
0.4377310709
0.4441421648
0.4505762173
0.4569812999
0.4633177902
0.4695552339
0.4756700068
0.4816436613
0.4874618022
0.4931133303
0.4985899159
0.5038856028
0.5089964842
0.5139204186
0.5186567737
0.5232061938
0.5275703901
0.5317519542
0.5357541938
0.5395809911
0.5432366805
0.5467259478
0.5500537518
0.5532252753
0.5562459299
0.5591214605
0.5618582623
0.5644641423
0.5669499747
0.5693332435
0.5716448752
0.5739437474
0.5763394994
0.5790532467
0.4018097411
0.4048232998
0.4095687328
0.4151712481
0.4213020836
0.4277682421
0.4344340092
0.4412012606
0.4479964543
0.4547642311
0.4614625917
0.4680593968
0.4745297525
0.4808541774
0.487017381
0.4930074672
0.4988153975
0.5044345973
0.5098606358
0.5150909434
0.520124553
0.5249618626
0.5296044183
0.5340547199
0.5383160483
0.5423923153
0.5462879347
0.5500077149
0.5535567768
0.5569405054
0.5601645623
0.5632350138
0.5661586968
0.5689440805
0.5716031042
0.5741550362
0.5766338098
0.5791032952
0.5816811273
0.5846004406
0.3970323765
0.4000961328
0.4050120532
0.4108605362
0.4172852399
0.4240757522
0.4310852722
0.438208072
0.4453653571
0.4524981663
0.4595620328
0.4665230686
0.4733550351
0.4800373115
0.4865535757
0.4928909754
0.4990395946
0.5049920738
0.5107433028
0.5162901444
0.5216311772
0.5267664532
0.5316972729
0.5364259813
0.5409557846
0.5452905898
0.5494348662
0.5533935302
0.5571718578
0.5607754357
0.5642101809
0.5674824916
0.570599663
0.5735708498
0.5764090914
0.5791355067
0.581787195
0.5844334356
0.5872009525
0.5903377171
0.3923563465
0.3954595781
0.4005332185
0.4066171657
0.4133277115
0.4204367362
0.4277859203
0.4352616371
0.4427796785
0.450277416
0.4577079036
0.4650354957
0.4722325655
0.4792772592
0.4861520826
0.4928430569
0.4993392056
0.505632205
0.5117161004
0.517587044
0.5232430407
0.5286837015
0.5339100094
0.5389241018
0.5437290745
0.548328807
0.5527278112
0.5569311064
0.5609441237
0.5647726556
0.5684228825
0.5719015467
0.5752164228
0.5783773874
0.5813986498
0.5843033203
0.5871319627
0.5899599067
0.5929243615
0.5962911913
0.387837121
0.3909747488
0.3961973395
0.4025083491
0.4094975795
0.4169193127
0.4246035474
0.4324286484
0.440304963
0.4481662304
0.4559630895
0.4636581798
0.4712224694
0.4786327827
0.4858703048
0.4929197434
0.4997688617
0.5064081783
0.5128307217
0.519031789
0.5250086975
0.5307605333
0.5362879038
0.5415927042
0.5466779021
0.5515473447
0.556205591
0.5606577719
0.5649094858
0.568966744
0.5728360048
0.576524374
0.5800401347
0.5833939398
0.5866012744
0.5896874525
0.592696932
0.5957119568
0.5988819553
0.602494188
0.3835035435
0.3866744773
0.3920405622
0.3985723395
0.4058343167
0.4135635267
0.421578318
0.4297490805
0.437980796
0.4462036935
0.4543661276
0.462429109
0.4703622014
0.4781408158
0.48574465
0.4931568892
0.500363816
0.5073545842
0.514121027
0.5206574445
0.5269603635
0.5330282779
0.5388613839
0.5444613229
0.5498309411
0.5549740719
0.5598953448
0.5646000281
0.5690939101
0.573383241
0.5774747745
0.581376
0.5850957429
0.5886454996
0.5920421737
0.5953135768
0.5985086492
0.6017177004
0.6051045974
0.6089822796
0.3793660289
0.3825717271
0.3880783312
0.3948263918
0.4023564065
0.4103886289
0.4187299156
0.4272428223
0.4358271316
0.4444097573
0.4529369568
0.461368231
0.4696717479
0.4778213994
0.485795204
0.4935745876
0.5011441086
0.5084913354
0.5156067254
0.5224834494
0.5291171593
0.5355057161
0.5416489003
0.547548122
0.553206146
0.5586268403
0.5638149559
0.5687759434
0.5735158189
0.5780410991
0.5823588545
0.5864769786
0.5904048751
0.5941549649
0.59774575
0.6012079181
0.6045956549
0.6080088137
0.6116285039
0.6157986405
0.3754235874
0.3786669363
0.3843127796
0.3912740385
0.3990684362
0.407399954
0.4160641941
0.4249160942
0.433850473
0.442791184
0.4516826214
0.460482919
0.469158855
0.4776826726
0.4860304856
0.4941816902
0.5021188532
0.5098277261
0.5172972135
0.5245192417
0.5314885329
0.538202313
0.5446599854
0.5508627968
0.5568135141
0.5625161282
0.5679755934
0.5731976132
0.5781884843
0.5829550251
0.5875046438
0.5918456553
0.5959880755
0.5999453398
0.6037377652
0.6073993889
0.6109906033
0.6146226685
0.6184974468
0.6229963855
0.3716691142
0.3749536399
0.3807384996
0.3879108667
0.395966804
0.4045945173
0.4135786364
0.4227667527
0.4320490107
0.44134651
0.4506020552
0.4597725718
0.4688234422
0.4777250986
0.4864514832
0.4949796561
0.503289901
0.5113659136
0.5191948809
0.5267673983
0.5340772464
0.5411210666
0.5478979829
0.5544092051
0.5606576422
0.5666475451
0.5723841942
0.5778736449
0.5831225451
0.5881380577
0.5929279472
0.5975009601
0.6018677522
0.6060428682
0.6100486937
0.6139231867
0.6177341242
0.6216064642
0.6257671307
0.6306431118
0.3680928892
0.3714222538
0.3773464964
0.3847285343
0.3930437342
0.4019649876
0.4112662584
0.4207881047
0.4304163336
0.4400696437
0.4496895588
0.459231965
0.4686608227
0.4779445502
0.4870546045
0.4959653636
0.5046545145
0.5131034586
0.5212975221
0.5292259269
0.5368815595
0.5442605982
0.5513620612
0.5581873242
0.5647396475
0.5710237398
0.5770453785
0.5828111037
0.5883280057
0.5936036398
0.5986461417
0.603464687
0.6080705872
0.6124795923
0.6167164419
0.6208236877
0.6248778984
0.62902048
0.6335085958
0.6388243676
0.3646845941
0.3680623017
0.3741265632
0.3817172219
0.390289759
0.3995021671
0.4091180638
0.4189713216
0.4289437901
0.438952164
0.4489370283
0.4588534044
0.468663778
0.4783343011
0.4878335798
0.4971329239
0.5062070917
0.5150349605
0.523599889
0.5318897433
0.5398966428
0.5476165163
0.5550485451
0.5621945669
0.569058488
0.5756457449
0.5819628392
0.588016969
0.5938157795
0.5993672739
0.6046799659
0.6097634427
0.6146296706
0.6192956949
0.6237889235
0.6281572712
0.6324877336
0.6369413783
0.6418116667
0.6476470536
0.3614342885
0.3648635304
0.3710685073
0.3788669273
0.3876950513
0.3971963409
0.4071243957
0.4173067819
0.4276218124
0.4379846192
0.4483352242
0.45862796
0.46882375
0.4788861727
0.4887805602
0.4984747267
0.5079401574
0.5171529955
0.5260945791
0.5347515171
0.5431153923
0.5511822105
0.5589517032
0.5664265778
0.5736117818
0.5805138337
0.5871402522
0.5934991117
0.5995987516
0.6054476851
0.6110548038
0.6164300708
0.6215860854
0.6265412683
0.6313260299
0.6359945032
0.6406459558
0.6454647602
0.6507875497
0.6572417772
0.3583327572
0.3618163413
0.3681626581
0.3761680262
0.385250022
0.3950378999
0.4052755755
0.4157847178
0.426440566
0.4371571755
0.4478744137
0.4585460979
0.4691314602
0.4795911337
0.4898866913
0.4999819847
0.5098448757
0.5194485981
0.528772489
0.5378021043
0.5465288471
0.5549492658
0.563064167
0.5708776654
0.57839626
0.5856280015
0.592581793
0.5992668561
0.6056923936
0.6118675026
0.6178014469
0.6235045119
0.6289898869
0.6342774334
0.6394009088
0.6444215861
0.6494530162
0.6547068628
0.6605704438
0.6677639697
0.3553715352
0.3589118646
0.3653999895
0.3736114346
0.3829455141
0.3930175592
0.4035621417
0.4143954726
0.425390221
0.4364598998
0.4475446625
0.4585979776
0.4695772057
0.4804395902
0.4911423922
0.5016449952
0.5119112915
0.5219114817
0.5316230171
0.5410307361
0.5501263714
0.5589076404
0.5673771074
0.5755409783
0.583407941
0.5909881346
0.5982922973
0.6053311283
0.6121149017
0.6186533894
0.6249562214
0.6310339398
0.6369002611
0.6425765358
0.6481002138
0.6535406639
0.65902783
0.664804844
0.6713175442
0.679393087
0.3525428048
0.3561418813
0.3627720741
0.3711885917
0.3807728118
0.3911263917
0.4019749057
0.4131295757
0.4244610474
0.4358828715
0.4473359614
0.458773589
0.4701510029
0.4814215282
0.4925374897
0.5034532612
0.5141284351
0.5245301265
0.5346341376
0.5444250804
0.5538957038
0.5630457011
0.5718802507
0.5804084899
0.5886420705
0.5965938905
0.6042770645
0.611704169
0.618886804
0.6258355348
0.6325603623
0.6390720154
0.645384662
0.6515211748
0.6575230274
0.6634686352
0.6695064401
0.6759151865
0.6832069163
0.692329343
0.3498392661
0.353498708
0.3602709886
0.3688913869
0.3787235888
0.3893557974
0.4005049425
0.4119777553
0.423643446
0.4354162325
0.4472382923
0.4590628317
0.470842672
0.4825265977
0.4940612949
0.5053955543
0.5164843689
0.5272918102
0.5377924143
0.5479712402
0.5578229351
0.5673501706
0.5765617766
0.5854708261
0.59409285
0.6024442953
0.6105412929
0.6183987745
0.6260299795
0.6334464268
0.6406585164
0.6476771045
0.6545167322
0.6612018135
0.6677781498
0.6743340944
0.6810385546
0.6882096965
0.6964326557
0.706787394
0.347254028
0.3509750939
0.3578892252
0.3667120887
0.3767898556
0.3876974697
0.3991435759
0.4109309419
0.422927972
0.4350502287
0.4472416854
0.4594555825
0.4716419103
0.4837441831
0.495702663
0.5074599602
0.5189662168
0.5301826212
0.5410829987
0.5516537304
0.5618924534
0.5718060196
0.5814081304
0.5907169581
0.599752968
0.6085370667
0.6170891452
0.6254270557
0.6335660639
0.6415188588
0.6492963106
0.6569093686
0.6643728796
0.6717128072
0.6789795375
0.6862721275
0.693781612
0.7018686812
0.7111968774
0.7229865726
0.3447805302
0.3485641467
0.3556196288
0.3646432956
0.3749639261
0.3861433786
0.3978823793
0.4099802872
0.4223053704
0.4347752611
0.4473362841
0.4599417701
0.4725383697
0.4850634758
0.4974500562
0.5096339273
0.5215601983
0.5331874798
0.5444896361
0.5554554609
0.5660868847
0.5763963359
0.5864037771
0.5961337922
0.6056129664
0.6148676933
0.6239224742
0.6327987444
0.6415142684
0.6500831965
0.6585169994
0.6668267294
0.6750274929
0.6831468006
0.6912398064
0.6994168277
0.7078921869
0.7170710647
0.7276982769
0.7411375279
0.342412497
0.3462592873
0.3534553599
0.3626779115
0.3732384065
0.3846857741
0.3967131944
0.4091171987
0.4217666269
0.4345819515
0.4475124234
0.4605114617
0.4735217445
0.4864735577
0.4992916162
0.5119043287
0.5242516829
0.5362901861
0.5479947039
0.559357752
0.5703870596
0.5811022014
0.5915309372
0.6017057
0.6116604937
0.6214283336
0.6310392861
0.6405191344
0.6498887127
0.6591640123
0.6683573109
0.6774798305
0.6865469199
0.6955876151
0.7046619073
0.7138916218
0.723514802
0.7339814992
0.746117364
0.7614255641
0.3401439142
0.3440542276
0.3513898792
0.3608091403
0.3716062023
0.3833172065
0.3956281657
0.4083333886
0.4213030305
0.4344612194
0.4477607182
0.4611549588
0.4745818692
0.4879634943
0.5012152525
0.5142575468
0.5270252754
0.5394735106
0.5515793019
0.5633404068
0.5747720354
0.5859026161
0.5967693506
0.6074140503
0.6178795229
0.628206631
0.6384320582
0.6485868036
0.6586954446
0.6687762923
0.678842723
0.6889062577
0.6989824968
0.7091019396
0.719329315
0.7297977729
0.740768552
0.7527349404
0.7665989661
0.7839915393
0.3379690218
0.3419429635
0.3494169472
0.3590304944
0.3700605369
0.3820305571
0.3946197839
0.4076209304
0.4209062444
0.4344043648
0.4480721581
0.4618628999
0.4757088246
0.4895224411
0.5032087484
0.5166795864
0.5298649446
0.5427193412
0.5552234128
0.5673818643
0.5792192027
0.5907745066
0.6020961218
0.6132368135
0.6242496308
0.6351845738
0.6460860778
0.6569913195
0.667929395
0.6789215111
0.689982518
0.701124423
0.7123630958
0.7237303592
0.7352953385
0.7472017622
0.7597323579
0.7734196712
0.7892332279
0.8089118677
0.3358823176
0.3399197777
0.3475306311
0.3573358103
0.3685949773
0.3808190739
0.3936809333
0.4069723186
0.4205683779
0.4344031545
0.4484382049
0.4626263672
0.4768930495
0.4911397598
0.5052598871
0.5191562199
0.5327542002
0.5460088982
0.5589061468
0.5714594496
0.5837045046
0.5956928597
0.6074857026
0.619148321
0.6307454495
0.6423375483
0.6539779941
0.6657111793
0.6775715787
0.6895839546
0.7017650758
0.7141276581
0.7266878346
0.7394784814
0.7525724502
0.7661226129
0.7804301321
0.7960603359
0.8140370106
0.83617985
0.3338785648
0.3379792476
0.3457253176
0.3557192673
0.3672034606
0.3796764085
0.3928049387
0.4063805274
0.4202820572
0.4344499044
0.4488508878
0.4634369922
0.4781254554
0.4928051436
0.507356597
0.5216731684
0.5356763226
0.5493230193
0.5626060753
0.5755497342
0.5882027839
0.6006310095
0.6129100634
0.6251192549
0.637336405
0.6496337437
0.6620747984
0.674712258
0.6875868916
0.7007277312
0.7141539449
0.7278791782
0.7419197505
0.756309125
0.7711228002
0.7865205708
0.8028175755
0.8206030742
0.8409381703
0.8656910405
0.3319528027
0.3361162546
0.3439957253
0.3541754062
0.3658803205
0.3785966499
0.391985609
0.4058390641
0.4200404905
0.4345375569
0.4493028932
0.4642870575
0.4793975405
0.494508749
0.5094871139
0.5242163132
0.5386146429
0.5526425152
0.5663016541
0.5796290053
0.5926882692
0.6055611018
0.6183390932
0.6311169398
0.6439868465
0.6570340603
0.6703334394
0.6839470466
0.6979228714
0.7122949376
0.7270852836
0.7423086536
0.757981348
0.7741366949
0.790851289
0.8082888209
0.8267726485
0.8469051944
0.8697654899
0.8972354588
0.3301003547
0.3343259924
0.3423369157
0.3526991449
0.3646203084
0.377574353
0.3912172735
0.4053420145
0.4198375234
0.4346597484
0.4497876447
0.4651695902
0.4807014986
0.4962413284
0.5116401557
0.5267719355
0.5415528653
0.5559485827
0.5699717224
0.5836738353
0.5971351927
0.6104547392
0.6237412522
0.6371059795
0.6506566468
0.664492643
0.6787012516
0.693354926
0.7085097533
0.7242054222
0.7404672439
0.7573111212
0.7747529498
0.7928249016
0.8116026396
0.8312500032
0.8520918271
0.874731816
0.9002468573
0.9304990025
0.3283168364
0.3326039735
0.3407443012
0.3512857904
0.3634186102
0.3766045611
0.3904948103
0.4048840786
0.4196676832
0.4348108636
0.4502993699
0.4660784419
0.4820303167
0.4979943578
0.5138051013
0.5293269714
0.5444754187
0.55922326
0.5735960585
0.5876617281
0.6015185211
0.6152837946
0.6290844724
0.6430492578
0.6573023131
0.6719581137
0.6871173149
0.702863652
0.719262074
0.7363584934
0.7541817684
0.7727488603
0.792074658
0.8121888551
0.8331637474
0.855159074
0.8784939391
0.9037614204
0.9320175287
0.9650754018
0.3265981587
0.3309460316
0.3392136494
0.3499310449
0.362270856
0.3756828188
0.389813664
0.4044605941
0.4195262092
0.4349860746
0.4508331501
0.4670083525
0.4833778579
0.4997601536
0.5159721652
0.5318692714
0.5473678191
0.5624498998
0.5771559617
0.5915718113
0.6058147653
0.62002136
0.6343372799
0.6489092771
0.6638785954
0.6793755058
0.6955147737
0.7123921197
0.7300819415
0.7486367605
0.7680890778
0.7884566193
0.8097524471
0.8320022084
0.8552721446
0.8797134909
0.9056326222
0.9336012572
0.9646390745
1.000488677
0.3249405287
0.3293483213
0.3377410824
0.348631007
0.3611731223
0.3748051769
0.3891698534
0.4040675467
0.4194090677
0.435181362
0.4513849506
0.4679549921
0.4847389237
0.5015319712
0.5181325594
0.5343878504
0.5502170239
0.5656136319
0.5806348266
0.5953855308
0.6100028209
0.6246427761
0.6394700755
0.6546497696
0.67034052
0.6866888229
0.7038240355
0.7218543259
0.7408638991
0.7609120531
0.7820348202
0.8042502022
0.8275684382
0.8520094305
0.8776306667
0.9045707518
0.9331172676
0.9638121365
0.9976280287
1.036224558
0.3233404467
0.3278073132
0.3363230715
0.3473821663
0.360121928
0.3739681885
0.3885599674
0.4037015673
0.4193129504
0.4353935179
0.4519516297
0.4689149809
0.4861092918
0.5033040799
0.5202786309
0.5368731115
0.5530117536
0.5687017866
0.5840186715
0.5990873025
0.614064783
0.6291266736
0.6444564896
0.6602374724
0.6766457119
0.6938440555
0.7119766466
0.7311642903
0.7515011013
0.7730530869
0.7958594946
0.8199379541
0.8452947987
0.8719425261
0.8999274453
0.929372135
0.9605409043
0.9939405606
1.030491677
1.071768012
0.3217946997
0.3263197863
0.3349564288
0.3461813938
0.3591142229
0.373168896
0.3879811506
0.4033599157
0.4192352582
0.435620129
0.4525309263
0.4698858836
0.4874857269
0.5050718093
0.5224039686
0.5393170322
0.5557427625
0.5717042484
0.5872965825
0.6026650728
0.6179866728
0.6334559449
0.6492747014
0.6656439238
0.6827568209
0.7007924136
0.7199095351
0.7402415409
0.7618923038
0.7849342545
0.8094093738
0.8353341861
0.8627100736
0.8915407051
0.9218593503
0.9537702845
0.9875121022
1.023554689
1.062767031
1.106642904
0.3203003525
0.3248828171
0.3336382937
0.3450259268
0.3581473701
0.3724048105
0.3874310791
0.4030404526
0.4191740681
0.4358595423
0.4531214246
0.4708661795
0.4888659642
0.5068315644
0.5245034725
0.5417132994
0.5584030395
0.574613718
0.5904610428
0.6061107443
0.6217590192
0.6376185642
0.6539086109
0.6708471232
0.6886438329
0.7074934816
0.7275692309
0.7490166526
0.7719490082
0.7964446954
0.822547851
0.8502731739
0.8796162271
0.9105708492
0.9431562081
0.97745737
1.013686991
1.05227965
1.09405814
1.140449007
0.3188547361
0.3234937658
0.3323661173
0.3439133501
0.3572191243
0.3716738853
0.3869079279
0.4027415999
0.4191280883
0.4361108141
0.4537225014
0.4718552092
0.4902486656
0.5085808085
0.5265733812
0.5440573872
0.5609879262
0.5774258612
0.5935081198
0.6094204328
0.6253772417
0.6416081825
0.6583487523
0.6758328959
0.6942860442
0.7139179872
0.7349156438
0.757436279
0.7816020199
0.8074966797
0.8351659643
0.8646221453
0.8958543984
0.9288462912
0.9636027573
1.000190189
1.038797183
1.079827531
1.124066832
1.172891526
0.317455435
0.3221502617
0.3311376444
0.3428415741
0.3563276045
0.370974483
0.3864103311
0.4024622932
0.4190966009
0.436373645
0.4543342543
0.4728531018
0.4916333509
0.5103180149
0.5286112573
0.546346572
0.5634951452
0.5801393377
0.5964374978
0.612594533
0.6288418033
0.6454244403
0.6625928612
0.6805958294
0.6996735026
0.720049905
0.7419250125
0.7654671505
0.7908067178
0.8180323805
0.8471909042
0.8782917328
0.9113174615
0.9462415601
0.9830555225
1.021808919
1.062669904
1.106018092
1.152612955
1.203799561
0.316100273
0.3208501871
0.3299508944
0.3418088119
0.3554712655
0.3703053399
0.3859373377
0.4022019274
0.419079397
0.4366483044
0.4549574184
0.4738606847
0.4930203087
0.5120425915
0.5306159324
0.5485798864
0.5659247393
0.5827557076
0.5992523548
0.6156375888
0.6321581156
0.6490729667
0.6666460395
0.685139688
0.7048077707
0.7258876853
0.748591725
0.7730986249
0.7995464763
0.8280283013
0.8585915543
0.8912426916
0.925957913
0.9627013235
1.001452556
1.042247238
1.085237903
1.130787793
1.179641927
1.233131994
0.3147872992
0.3195916604
0.3288041408
0.3408135538
0.3546488676
0.3696655277
0.3854883638
0.4019602979
0.4190767061
0.4369355478
0.4555932731
0.4748793827
0.4944104914
0.5137547827
0.5325874169
0.5507580166
0.5682789273
0.5852792255
0.6019590928
0.6185579765
0.6353362051
0.6525650639
0.6705205002
0.6894772676
0.709701946
0.731444496
0.754928846
0.7803435575
0.8078339225
0.8374969385
0.8693805356
0.9034882394
0.9397903375
0.9782427046
1.018815215
1.061533056
1.106538596
1.154186893
1.205219778
1.26097142
0.3135147735
0.3183730208
0.3276958924
0.3398545438
0.3538594457
0.3690544159
0.3850631453
0.4017375411
0.4190891229
0.4372365305
0.4562435438
0.4759111091
0.4958053999
0.5154555546
0.5345267804
0.5528831513
0.5705618877
0.5877165378
0.604566944
0.6213674276
0.6383901645
0.6559171017
0.6742349167
0.6936297081
0.7143799423
0.736747477
0.7609673351
0.7872374592
0.815709983
0.8464856265
0.8796127092
0.9150920128
0.9528885414
0.9929512494
1.035242559
1.079780939
1.126704166
1.176367104
1.229518732
1.287509079
0.3122811542
0.3171928129
0.3266248747
0.3389307564
0.3531022802
0.3684716339
0.3846616904
0.4015340753
0.4191175352
0.4375527214
0.4569103037
0.4769581563
0.4972069631
0.51714647
0.5364360117
0.5549587941
0.5727794879
0.5900763061
0.6070874818
0.6240804264
0.6413374344
0.6591496725
0.6778134336
0.6976253328
0.7188751195
0.7418361078
0.7667540832
0.793836107
0.8232409404
0.8550728726
0.8893805742
0.9261622726
0.9653782858
1.006971908
1.050900355
1.097178989
1.145946333
1.19756443
1.252798497
1.313025248
0.3110850859
0.3160497737
0.3255900132
0.3380413749
0.3523768701
0.367917037
0.3842842356
0.4013505449
0.419163054
0.4378858196
0.4575958781
0.4780230874
0.4986174189
0.5188295607
0.5383178659
0.5569895498
0.5749389755
0.5923687833
0.6095340715
0.6267135259
0.6441979676
0.6622865754
0.6812844252
0.7014981228
0.7232283994
0.7467598715
0.7723490096
0.8002119309
0.8305139386
0.8633627789
0.8988073888
0.9368435123
0.9774272135
1.020497202
1.066007524
1.113973744
1.164539923
1.218081587
1.275387437
1.337868526
0.3099253899
0.3149428208
0.3245904193
0.3371857736
0.3516829093
0.3673906758
0.3839312065
0.40118777
0.4192269503
0.438237677
0.4583027545
0.4791086351
0.5000391997
0.5205072019
0.5401757087
0.5589808997
0.5770486513
0.594605367
0.611921294
0.629284627
0.6469933344
0.6653537015
0.6846790993
0.7052859571
0.7274860421
0.7515754481
0.7778215312
0.8064496012
0.8376315137
0.8714783448
0.9080391009
0.9473069365
0.9892338946
1.033754958
1.080822747
1.130455816
1.182807563
1.238271528
1.297664383
1.362434911
0.3088010564
0.3138710441
0.3236253788
0.3363635024
0.3510202662
0.3668927698
0.3836031838
0.4010467016
0.4193105975
0.4386102284
0.4590335026
0.4802176102
0.5014748289
0.522181996
0.5420133642
0.5609389763
0.5791175429
0.5967981578
0.6142643773
0.6318122634
0.6497458252
0.6683778985
0.6880300468
0.7090287539
0.7316972662
0.7563436869
0.7832467479
0.8126412838
0.8447057926
0.8795545228
0.917236244
0.9577412688
1.001017676
1.046997322
1.095632646
1.146947035
1.201105397
1.258521265
1.320040116
1.387146693
0.3077112391
0.3128336992
0.3226943433
0.335574275
0.3503889686
0.3664236879
0.3833008762
0.4009283856
0.4194154235
0.4390054308
0.4597907036
0.4813528222
0.5029268299
0.5238566702
0.5438349748
0.5628703489
0.581155093
0.5989595415
0.6165786643
0.6343149309
0.6524775996
0.6713858788
0.6913698294
0.7127666405
0.7359118925
0.7611266041
0.7887016819
0.8188820282
0.851852983
0.8877318321
0.9265667649
0.968344903
1.013010202
1.060491511
1.110741438
1.16378853
1.219809131
1.279235603
1.342938877
1.412432247
0.3066552526
0.3118302037
0.3217969253
0.3348179616
0.3497891933
0.3659839331
0.383025101
0.4008339345
0.4195428718
0.4394252126
0.4605768923
0.4825170136
0.5043976515
0.5255339907
0.5456448783
0.5647818291
0.5831708782
0.6011018161
0.6188791378
0.636810489
0.6552099228
0.6744032287
0.6947296844
0.7165382641
0.7401781641
0.7659846253
0.7942618727
0.8252656941
0.859188668
0.8961511075
0.9362003078
0.9793197099
1.025448549
1.074511926
1.126461564
1.181329517
1.23930081
1.300822009
1.366781727
1.438708658
0.3056325713
0.3108601365
0.3209328957
0.3340945847
0.3492212598
0.3655741358
0.3827767724
0.4007645094
0.4196943718
0.4398714346
0.4613945123
0.4837128114
0.5058896125
0.5272166998
0.5474475069
0.5666803047
0.585174367
0.6032368745
0.6211800229
0.639315659
0.6579625184
0.6774535603
0.6981384066
0.7203793303
0.744540873
0.7709742497
0.7999985716
0.8318817133
0.866824211
0.9049496033
0.9463039755
0.9908662586
1.038569587
1.089333296
1.143105401
1.199917511
1.259957695
1.323678449
1.39197374
1.466368746
0.3046428313
0.3099232391
0.3201021851
0.3334043194
0.3486856303
0.3651950514
0.3825568982
0.4007213109
0.4198713215
0.4403458613
0.4622458848
0.4849426938
0.5074048666
0.5289074757
0.5492473139
0.5685726076
0.5871747272
0.6053759565
0.6234944773
0.6418456336
0.6607530612
0.6805578388
0.7016214561
0.7243214394
0.7490398902
0.7761462707
0.8059766872
0.8388128243
0.8748643207
0.9142583447
0.9570392982
1.003180149
1.052605439
1.105225158
1.160978816
1.21989119
1.282144713
1.348185688
1.418896253
1.495773296
0.3036858333
0.3090194196
0.3193048869
0.3327474966
0.3481829129
0.3648475659
0.3823665848
0.4007055809
0.420075079
0.4408501444
0.4631331923
0.4862089768
0.5089453898
0.5306089196
0.5510487298
0.5704654223
0.5891806908
0.6075294766
0.6258343809
0.6444138099
0.6635968244
0.6837339063
0.7052003239
0.7283912708
0.753709168
0.7815446279
0.81225354
0.8461337653
0.8834056513
0.9242005098
0.9685602198
1.016449463
1.067780382
1.122448358
1.180377551
1.241577003
1.306211587
1.37470499
1.447904863
1.527248773
0.3027615477
0.3081487574
0.318541263
0.3321246085
0.3477138698
0.3645327067
0.3822070512
0.4007186141
0.4203069665
0.4413858174
0.464058477
0.4875138171
0.5105129913
0.5323235706
0.5528561535
0.5723652409
0.5912004825
0.6097069376
0.6282102334
0.647031657
0.6665064948
0.6869962222
0.7088921799
0.7326101418
0.7585762391
0.7872058923
0.8188783716
0.8539107973
0.8925362632
0.9348907236
0.9810121689
1.030853676
1.084309809
1.141254401
1.20158738
1.265290528
1.33249559
1.403582075
1.47933376
1.561090759
0.3018701186
0.3073115093
0.3178117498
0.3315363167
0.347279427
0.3642516579
0.3820796495
0.4007617808
0.4205682846
0.4419543024
0.4650236537
0.4888592333
0.5121093457
0.5340539494
0.5546739791
0.5742783691
0.5932418201
0.6119169377
0.6306311688
0.6497087301
0.6694921708
0.6903558332
0.7127098206
0.7369939542
0.7636621996
0.793159324
0.8258924877
0.8622019028
0.9023358407
0.9464353114
0.9945324749
1.046564497
1.102401888