/*--------------------------------*- C++ -*----------------------------------*\
| =========                 |                                                 |
| \\      /  F ield         | foam-extend: Open Source CFD                    |
|  \\    /   O peration     | Version:     3.2                                |
|   \\  /    A nd           | Web:         http://www.foam-extend.org         |
|    \\/     M anipulation  | For copyright notice see file Copyright         |
\*---------------------------------------------------------------------------*/
FoamFile
{
    version     2.0;
    format      ascii;
    class       volScalarField;
    location    "0.12";
    object      kSqrt;
}
// * * * * * * * * * * * * * * * * * * * * * * * * * * * * * * * * * * * * * //

dimensions      [0 1 -1 0 0 0 0];

internalField   nonuniform List<scalar> 
18000
(
0.5055390008
0.522990166
0.551377028
0.5838118547
0.6179551873
0.6530520078
0.6888563533
0.725260066
0.7621859219
0.7995511436
0.8372582353
0.8751959422
0.9132433451
0.9512744657
0.9891624768
1.026783234
1.064018091
1.10075605
1.13689531
1.172344297
1.207022259
1.240859486
1.273797236
1.30578742
1.336792103
1.366782878
1.395740152
1.423652378
1.450515279
1.476331058
1.501107654
1.524858004
1.547599342
1.569352477
1.59014099
1.609990197
1.628925715
1.646972556
1.664181944
1.681295743
0.6071923836
0.6085326531
0.6137969389
0.6207191063
0.6284882343
0.6367888062
0.6454976049
0.6545586993
0.6639424497
0.6736286228
0.6835993226
0.6938359905
0.7043181732
0.7150231118
0.7259257291
0.7369988183
0.7482133414
0.7595387926
0.7709436024
0.7823955649
0.7938622759
0.8053115671
0.8167119229
0.8280328689
0.8392453193
0.8503218796
0.861237096
0.8719676523
0.8824925153
0.8927930285
0.9028529659
0.9126585501
0.9221984523
0.9314637989
0.940448225
0.9491480557
0.9575629587
0.9657004306
0.9736238114
0.9820445903
0.6359761456
0.6364863962
0.6391625269
0.6428064509
0.6469328651
0.6513332255
0.6559041636
0.6605873
0.6653463092
0.6701562566
0.6749986006
0.6798586522
0.6847241858
0.6895846481
0.6944306902
0.6992538751
0.7040464828
0.7088013708
0.7135118706
0.7181717095
0.7227749527
0.7273159647
0.7317893866
0.7361901271
0.7405133662
0.7447545676
0.7489094974
0.752974247
0.7569452581
0.7608193471
0.7645937293
0.7682660413
0.7718343627
0.7752972424
0.7786537411
0.7819035574
0.7850476583
0.7880928089
0.7910844315
0.7944072035
0.6463739302
0.647187605
0.6494785161
0.6524731086
0.6558350593
0.6594076357
0.6630997747
0.6668542892
0.6706325147
0.6744067236
0.6781561851
0.68186493
0.6855204035
0.6891126176
0.6926335995
0.6960770139
0.6994378888
0.7027124019
0.7058977057
0.7089917777
0.7119932914
0.714901504
0.7177161605
0.7204374114
0.7230657443
0.7256019273
0.7280469622
0.7304020472
0.7326685467
0.7348479678
0.7369419427
0.7389522161
0.7408806415
0.7427291941
0.7445000392
0.7461958197
0.7478208702
0.7493872316
0.7509406779
0.7527148476
0.6502633174
0.6514579569
0.6538108114
0.656733713
0.6599708985
0.6633943545
0.6669211632
0.6704959595
0.6740795749
0.6776432836
0.6811654891
0.6846296884
0.6880231527
0.6913360493
0.6945608426
0.6976918698
0.700725026
0.7036575154
0.7064876456
0.7092146504
0.7118385362
0.7143599471
0.7167800474
0.7191004208
0.7213229842
0.7234499147
0.725483589
0.7274265332
0.7292813823
0.731050848
0.7327376953
0.7343447313
0.735874813
0.737330905
0.7387162727
0.7400351216
0.7412946291
0.7425123075
0.7437378658
0.7451471474
0.6509511388
0.6524627599
0.654997138
0.6580341898
0.6613595308
0.6648592451
0.6684543996
0.6720902646
0.6757270572
0.6793352509
0.6828925968
0.6863821826
0.6897911079
0.6931095692
0.6963302213
0.6994477183
0.702458371
0.7053598751
0.7081510868
0.7108318298
0.7134027277
0.7158650576
0.718220622
0.7204716401
0.7226206531
0.7246704465
0.7266239834
0.7284843512
0.7302547174
0.7319382966
0.7335383272
0.7350580672
0.7365008248
0.737870079
0.7391698356
0.7404056576
0.7415874133
0.7427374603
0.7439096773
0.745256588
0.6498445668
0.6516062606
0.6543555164
0.6575812795
0.6610863296
0.664761309
0.6685278628
0.6723304824
0.6761282158
0.6798905181
0.6835943948
0.6872224633
0.6907615802
0.6942018733
0.6975360586
0.7007589491
0.7038670873
0.7068584562
0.7097322399
0.71248862
0.7151285968
0.7176538356
0.7200665312
0.7223692934
0.7245650478
0.7266569543
0.7286483377
0.7305426321
0.7323433361
0.7340539798
0.7356781078
0.737219288
0.7386811791
0.7400677363
0.7413837467
0.742636217
0.7438376316
0.745014473
0.7462240026
0.747607389
0.6476226135
0.6495779887
0.6525448534
0.6559905241
0.6597189962
0.6636188016
0.6676093783
0.6716330936
0.6756471757
0.6796197252
0.6835268167
0.6873504792
0.6910772335
0.6946970501
0.6982026134
0.7015887948
0.7048522626
0.7079911763
0.7110049365
0.7138939699
0.7166595441
0.7193036057
0.7218286399
0.7242375506
0.7265335578
0.7287201129
0.7308008269
0.7327794131
0.7346596418
0.7364453088
0.7381402236
0.7397482348
0.7412733359
0.7427199554
0.7440936597
0.7454028387
0.7466623449
0.7479022149
0.7491831311
0.7506421195
0.644685799
0.6467902059
0.6499657663
0.6536429612
0.6576163603
0.6617676183
0.6660117024
0.6702876567
0.6745502513
0.6787658743
0.6829094603
0.6869623183
0.6909105372
0.6947438478
0.6984548234
0.7020383145
0.7054910356
0.7088112447
0.7119984825
0.7150533495
0.7179773132
0.7207725399
0.7234417494
0.7259880895
0.7284150308
0.7307262777
0.7329256949
0.7350172481
0.7370049581
0.7388928712
0.7406850548
0.7423856404
0.7439989686
0.7455299591
0.7469849599
0.7483736736
0.7497130887
0.7510363767
0.7524076399
0.7539636944
0.6412980318
0.643516359
0.6468870525
0.6507972098
0.6550249411
0.6594415854
0.663955802
0.6685022696
0.6730327114
0.6775114575
0.681912096
0.6862150835
0.6904059794
0.69447419
0.6984120962
0.7022144466
0.7058779215
0.7094008003
0.712782691
0.7160243007
0.7191272365
0.7220938311
0.724926992
0.7276300719
0.7302067582
0.7326609813
0.7349968381
0.7372185302
0.7393303178
0.7413364918
0.743241376
0.7450493876
0.7467652183
0.7483942781
0.7499436734
0.7514243463
0.7528552804
0.7542726557
0.7557444525
0.7574104432
0.637650306
0.6399556426
0.6435069097
0.6476462218
0.6521308014
0.6568192537
0.6616124779
0.6664399184
0.6712497429
0.67600392
0.6806745112
0.6852410043
0.6896883403
0.6940055196
0.6981846476
0.7022202862
0.7061089972
0.709849
0.7134398953
0.7168824301
0.720178293
0.7233299342
0.7263404092
0.7292132433
0.7319523166
0.7345617681
0.7370459148
0.7394091884
0.7416560873
0.7437911504
0.7458189659
0.7477442481
0.7495720528
0.7513082871
0.7529608055
0.754541744
0.756072004
0.7575907519
0.7591702703
0.7609554827
0.6338846434
0.6362572591
0.639975572
0.644337837
0.6490778718
0.6540399392
0.6591160818
0.6642298251
0.6693253725
0.6743620919
0.6793103795
0.6841486657
0.6888611997
0.6934364984
0.697866306
0.7021449047
0.706268644
0.7102355928
0.7140452617
0.7176983652
0.7211966119
0.7245425195
0.7277392516
0.730790476
0.7337002442
0.7364728884
0.7391129377
0.7416250501
0.7440139627
0.7462844668
0.7484414221
0.7504898492
0.7524351778
0.7542838196
0.7560443798
0.7577301869
0.7593640825
0.7609883673
0.7626802261
0.7645916822
0.630105052
0.6325315271
0.6364055729
0.6409840374
0.6459761914
0.651210989
0.6565708433
0.6619728635
0.6673569937
0.6726798394
0.6779100477
0.68302494
0.6880080196
0.6928472498
0.6975339244
0.7020619456
0.7064273456
0.7106279433
0.7146630694
0.7185333287
0.7222403874
0.7257867822
0.729175749
0.732411074
0.7354969644
0.738437939
0.7412387377
0.743904248
0.7464394535
0.7488494079
0.7511392554
0.7533143378
0.7553804756
0.7573446044
0.7592161032
0.7610095313
0.7627497591
0.7644824626
0.7662903839
0.7683343784
0.6263835458
0.6288557689
0.6328769379
0.6376654026
0.6429056785
0.6484109316
0.6540534537
0.6597436147
0.6654169208
0.6710271351
0.6765411322
0.6819351111
0.6871917968
0.6922985333
0.6972460703
0.7020278177
0.7066393745
0.711078199
0.7153433444
0.7194352257
0.7233554041
0.7271063894
0.7306914598
0.7341145018
0.7373798713
0.7404922734
0.743456664
0.7462781696
0.7489620309
0.7515135765
0.7539382484
0.7562417251
0.758430236
0.7605112671
0.7624950163
0.7643973576
0.7662453672
0.7680884758
0.770015819
0.7721989324
0.6227657031
0.6252797364
0.6294420859
0.634435457
0.639919979
0.6456928935
0.6516161043
0.657593072
0.6635547928
0.6694521868
0.6752503902
0.6809245038
0.6864564585
0.6918329153
0.6970439763
0.7020824335
0.7069433228
0.7116236212
0.716122002
0.7204386088
0.7245748391
0.7285331381
0.7323168056
0.7359298229
0.7393766984
0.7426623356
0.745791922
0.7487708407
0.7516046074
0.7542988426
0.7568593032
0.7592920215
0.7616036599
0.7638022911
0.7658989975
0.7679110968
0.7698681264
0.7718237861
0.773874638
0.776204991
0.6192766292
0.6218315506
0.6261314256
0.6313258584
0.6370512669
0.6430890504
0.6492906268
0.6555525002
0.6618011756
0.6679848004
0.6740668569
0.6800214034
0.6858295717
0.6914772706
0.6969538363
0.7022513006
0.7073639912
0.7122882732
0.7170223337
0.7215659668
0.7259203562
0.7300878563
0.7340717839
0.7378762247
0.7415058605
0.7449658192
0.7482615484
0.7513987145
0.7543831322
0.7572207346
0.7599176103
0.7624801637
0.7649155135
0.7672323635
0.7694427683
0.7715656659
0.7736334075
0.7757046477
0.7778846941
0.7803731669
0.6159269672
0.6185238291
0.6229593335
0.628352124
0.6343156994
0.6406158201
0.6470934366
0.6536381433
0.660172047
0.6666406508
0.6730059114
0.6792409227
0.6853260158
0.6912462654
0.6969901032
0.7025486372
0.7079153258
0.713085784
0.7180576059
0.7228301664
0.7274043987
0.7317825607
0.7359680022
0.7399649465
0.7437782909
0.7474134333
0.7508761255
0.7541723566
0.7573082721
0.7602901414
0.763124403
0.7658178495
0.7683780808
0.7708144815
0.7731401878
0.775375985
0.777557493
0.7797491992
0.7820668155
0.7847283865
0.6127181958
0.6153591929
0.6199296569
0.6255190153
0.6317186369
0.6382788999
0.6450303823
0.6518558846
0.6586732673
0.6654255661
0.672073375
0.6785889175
0.6849517173
0.6911459127
0.6971588668
0.702980576
0.7086034527
0.7140222168
0.7192337683
0.7242370066
0.7290326007
0.7336227321
0.7380108302
0.7422013183
0.7461993796
0.750010752
0.753641555
0.757098153
0.7603870621
0.7635149148
0.7664885151
0.7693150559
0.7720026396
0.7745613854
0.7770056404
0.7793583187
0.7816588791
0.7839787424
0.7864460864
0.7893012008
0.6096467126
0.6123345817
0.6170401118
0.6228249086
0.6292589324
0.636077446
0.643100798
0.650205162
0.6573043517
0.6643391528
0.6712689887
0.6780653153
0.6847068294
0.6911766045
0.6974607395
0.7035479061
0.7094292784
0.7150985342
0.7205517892
0.7257874333
0.7308058883
0.7356093165
0.7402013124
0.7445866002
0.7487707541
0.7527599518
0.756560767
0.7601800082
0.7636246101
0.7669015958
0.7700181473
0.7729818627
0.7758013613
0.7784875517
0.7810561399
0.7835325052
0.7859606378
0.7884202333
0.7910544423
0.7941304123
0.6067065923
0.6094442171
0.6142853542
0.6202648904
0.6269320012
0.634007088
0.6413004432
0.6486818209
0.656061227
0.6633774519
0.6705889641
0.6776665588
0.6845880679
0.6913353385
0.697892975
0.7042480839
0.7103903958
0.7163124029
0.7220093643
0.7274791591
0.7327220206
0.737740197
0.7425375824
0.7471193507
0.7514916151
0.7556611276
0.7596350298
0.7634206597
0.767025427
0.7704567735
0.7737222639
0.7768298958
0.7797888094
0.782610754
0.7853129579
0.787923656
0.7904921875
0.7931081137
0.7959325322
0.799264892
0.6038912105
0.606681384
0.6116588618
0.6178326812
0.6247317497
0.632061838
0.6396233765
0.6472799407
0.6549380048
0.6625346511
0.6700276325
0.6773871895
0.6845902263
0.6916171637
0.6984508428
0.7050765376
0.71148232
0.7176593624
0.7236020239
0.7293077151
0.7347765938
0.7400111596
0.7450158019
0.7497963503
0.7543596543
0.7587132165
0.7628648892
0.766822645
0.7705944326
0.7741881386
0.7776117064
0.7808735126
0.7839832081
0.7869534261
0.7898030916
0.7925637332
0.7952909741
0.798086072
0.8011314915
0.8047652164
0.6011940523
0.604039345
0.6091539274
0.6155216708
0.6226516291
0.6302351473
0.638063003
0.6459928652
0.6539279872
0.661804064
0.6695783929
0.6772207617
0.6847070541
0.6920160205
0.6991284289
0.7060274263
0.7126992054
0.7191335032
0.7253237754
0.7312670628
0.7369636303
0.742416467
0.7476307265
0.7526131661
0.7573716273
0.7619145842
0.7662507763
0.7703889354
0.7743376212
0.7781051889
0.7816999449
0.7851306075
0.7884073093
0.7915435985
0.7945602746
0.7974926352
0.8004036205
0.8034082152
0.8067140445
0.8107044944
0.5986090187
0.6015117134
0.6067640877
0.6133253836
0.620685123
0.6285204053
0.6366125788
0.6448137079
0.6530241695
0.661178626
0.6692341994
0.6771603192
0.6849317193
0.6925251863
0.6999190605
0.7070940423
0.7140342259
0.7207278253
0.7271674422
0.7333499194
0.7392758938
0.7449491699
0.7503760171
0.7555644681
0.7605236749
0.7652633544
0.7697933444
0.7741232822
0.7782624195
0.7822196
0.7860034649
0.7896230188
0.7930888266
0.7964153648
0.7996254803
0.8027587347
0.8058864785
0.8091395818
0.8127548485
0.8171682628
0.5961304683
0.5990925342
0.6044832417
0.6112376253
0.6188259159
0.6269111254
0.6352654104
0.6437355611
0.6522194577
0.6606511181
0.6689877895
0.6771986249
0.6852570363
0.6931374973
0.7008155194
0.7082690133
0.7154797632
0.7224344134
0.7291248296
0.7355479156
0.7417050434
0.7476012576
0.7532443876
0.7586441711
0.7638114564
0.7687575266
0.7734935664
0.7780302875
0.7823777232
0.786545224
0.7905417265
0.7943764472
0.7980603117
0.8016087174
0.8050467153
0.8084186192
0.8118052907
0.8153556549
0.8193397001
0.8242530479
0.5937531514
0.5967762405
0.6023056318
0.609252486
0.6170679151
0.6254009847
0.6340149097
0.6427515661
0.6515067516
0.6602142618
0.6688317885
0.6773282727
0.6856755814
0.6938454642
0.7018101522
0.709544404
0.7170274996
0.7242445212
0.7311868007
0.7378516656
0.7442416972
0.7503637126
0.7562276447
0.7618454502
0.7672301288
0.7723949058
0.7773525998
0.7821151891
0.7866935896
0.7910976772
0.7953366346
0.7994197992
0.8033583646
0.8071686161
0.8108779362
0.8145358403
0.818233732
0.8221406124
0.8265633166
0.8320633047
0.5914721178
0.5945575734
0.6002257813
0.6073642951
0.6154052232
0.6239838118
0.6328545982
0.6418549332
0.6508789795
0.6598607675
0.6687587699
0.6775417565
0.6861797665
0.6946413447
0.7028949387
0.7109117767
0.7186684694
0.7261486144
0.7333433127
0.7402507955
0.7468754482
0.7532265068
0.7593166511
0.7651606538
0.7707741887
0.7761728514
0.781371418
0.7863833509
0.7912205631
0.795893477
0.800411467
0.8047838868
0.8090220839
0.8131431691
0.8171769391
0.821178479
0.8252506011
0.8295840503
0.8345254075
0.8407064851
0.5892826384
0.5924315099
0.5982384351
0.6055675757
0.613832107
0.6226535712
0.6317781066
0.6410389551
0.6503291259
0.6595833751
0.6687613067
0.6778315296
0.6867619022
0.6955172054
0.7040615477
0.7123622395
0.7203930988
0.7281364029
0.735583441
0.7427339567
0.7495948595
0.7561785633
0.762501233
0.7685811331
0.7744371943
0.7800878583
0.7855502181
0.7908394627
0.7959686325
0.8009487242
0.805789247
0.8104994563
0.8150907187
0.8195808729
0.8240021466
0.8284154317
0.8329355389
0.8377760329
0.8433248943
0.850286171
0.5871801514
0.5903932136
0.5963385186
0.6038570159
0.6123429807
0.62140436
0.6307791842
0.6402970304
0.6498502677
0.6593749018
0.6688320298
0.6781900693
0.6874142635
0.6964649854
0.7053013939
0.7138864947
0.7221912478
0.7301968774
0.73789541
0.745288844
0.7523874565
0.7592077027
0.765770055
0.7720970096
0.7782113893
0.7841349969
0.7898876339
0.7954864829
0.8009458586
0.8062773695
0.8114906034
0.8165945931
0.8216005678
0.8265269509
0.8314083271
0.8363114418
0.8413632907
0.8468004869
0.8530523295
0.8608934475
0.5851602319
0.5884380063
0.5945211181
0.6022274582
0.6109324074
0.6202304202
0.6298517241
0.6396227003
0.6494356218
0.6592283
0.6689636936
0.6786099481
0.6881291626
0.6974765642
0.7066057006
0.7154748973
0.7240522653
0.7323183639
0.7402666438
0.7479022342
0.7552397365
0.7623005978
0.7691104844
0.7756969125
0.7820872673
0.7883072583
0.7943798122
0.8003243933
0.8061567544
0.8118891626
0.8175312293
0.8230916295
0.8285812693
0.8340189537
0.8394414258
0.8449210743
0.8505967329
0.8567272023
0.8637808542
0.8725970228
0.5832185818
0.5865613588
0.5927814768
0.6006739051
0.6095951134
0.6191261636
0.6289897978
0.6390096937
0.6490786012
0.6591367228
0.6691492496
0.6790839114
0.6888990269
0.6985438385
0.7079655729
0.7171175265
0.7259650649
0.7344886048
0.7426838505
0.7505600621
0.7581372141
0.7654427582
0.7725084793
0.7793677247
0.7860531298
0.7925948719
0.7990194354
0.8053488707
0.8116005449
0.8177874371
0.823919124
0.8300037697
0.8360517309
0.8420819079
0.8481328404
0.8542820219
0.8606791226
0.8676029855
0.8755563752
0.8854329672
0.5813510315
0.5847588935
0.5911150033
0.599191534
0.608326012
0.6180862052
0.628187698
0.6384519797
0.6487728758
0.6590935934
0.6693819225
0.6796049587
0.6897164813
0.6996588034
0.7093720804
0.7188042754
0.7279182266
0.7366948766
0.7451331511
0.7532475451
0.7610645194
0.7686185703
0.7759485304
0.7830943835
0.7900946974
0.796984676
0.8037947983
0.8105500105
0.8172694751
0.8239669357
0.8306518633
0.8373317282
0.8440160518
0.8507234329
0.8574936376
0.8644083307
0.8716262719
0.8794428186
0.888387994
0.8993952789
0.5795535502
0.5830263954
0.5895172865
0.5977757191
0.607120233
0.6171053994
0.6274399838
0.6379438209
0.6485124346
0.6590926752
0.6696552881
0.6801664261
0.6905744344
0.7008136413
0.7108163526
0.7205249614
0.7299001303
0.7389241491
0.7476002587
0.7559493697
0.7640055658
0.7718114146
0.7794136916
0.7868597848
0.7941948435
0.8014596361
0.808689059
0.815911257
0.8231473615
0.8304119186
0.8377141969
0.8450607423
0.8524598727
0.8599293467
0.8675093373
0.875284304
0.8834195674
0.8922221337
0.9022399961
0.9144287014
0.5778222606
0.5813598263
0.5879841134
0.5964220547
0.6059731517
0.6161788771
0.6267415247
0.6374798251
0.6482916452
0.6591281396
0.6699633481
0.6807620672
0.6914661636
0.7020008145
0.7122896862
0.7222694569
0.7318991205
0.7411632879
0.7500707135
0.7586499418
0.7669437945
0.7750038771
0.7828857282
0.7906448349
0.7983335174
0.8059986003
0.8136797886
0.8214087034
0.8292085936
0.8370948161
0.8450762953
0.8531583547
0.8613476363
0.8696603504
0.8781359805
0.8868599499
0.8960008792
0.9058714446
0.91702681
0.9304251934
0.5761534541
0.5797553403
0.5865114878
0.5951263783
0.6048804183
0.6153020802
0.626087541
0.637054993
0.6481053082
0.6591946275
0.6703005991
0.6813861295
0.6923853988
0.7032131604
0.7137836604
0.7240278401
0.7339037014
0.7433992973
0.7525301682
0.7613337017
0.7698625002
0.7781780656
0.7863454033
0.7944286877
0.8024879105
0.8105763753
0.8187389324
0.8270109108
0.8354177826
0.8439756736
0.8526929598
0.8615733594
0.8706212426
0.8798503821
0.8892982003
0.8990488423
0.9092703935
0.9202745212
0.9326121863
0.9472251363
0.5745436056
0.5782092981
0.5850956466
0.5938847909
0.6038379819
0.614470791
0.6254736393
0.6366647583
0.6479487043
0.6592873034
0.6706620943
0.6820334231
0.6933264012
0.7044439853
0.7152902598
0.725790559
0.7359027553
0.7456195965
0.754964716
0.7639854942
0.7727452314
0.7813160303
0.7897729118
0.7981891878
0.8066329071
0.8151641816
0.8238332669
0.8326793657
0.8417302141
0.8510025982
0.8605040639
0.8702362445
0.8802005168
0.8904071549
0.9008899154
0.9117291282
0.9230882012
0.9352709853
0.9488133944
0.9646237621
0.5729893859
0.5767182791
0.5837330736
0.5926936733
0.6028421105
0.6136811559
0.6248958395
0.6363050201
0.6478176311
0.6594018984
0.6710434933
0.6826993789
0.6942840317
0.7056871529
0.7168019959
0.7275486041
0.7378857762
0.747812316
0.757361247
0.7665909784
0.775576251
0.784400277
0.7931484555
0.8019035215
0.8107418289
0.8197305129
0.8289253977
0.8383696392
0.8480931989
0.8581133336
0.8684363929
0.8790613518
0.8899857628
0.9012152102
0.9127780384
0.9247481138
0.9372800751
0.9506636736
0.9654105493
0.982382513
0.5714876715
0.5752790902
0.5824205091
0.5915496978
0.6018894051
0.6129297013
0.6243505938
0.6359721646
0.6477084292
0.659534741
0.6714410995
0.6833800937
0.6952538083
0.7069371638
0.718312025
0.7292936798
0.7398431044
0.7499665991
0.7597078134
0.7691370563
0.7783410341
0.7874143509
0.7964529364
0.8055490532
0.8147874542
0.8242423829
0.8339752836
0.8440332456
0.8544483258
0.8652379791
0.8764069133
0.8879507978
0.8998624601
0.9121415506
0.9248092477
0.9379304297
0.9516473203
0.9662304369
0.9821604118
1.000244309
0.5700355504
0.5738887708
0.5811549556
0.5904498344
0.6009768068
0.6122133426
0.6238347966
0.6356630764
0.6476179952
0.6596827738
0.6718518814
0.6840723588
0.6962319468
0.7081892199
0.7198142534
0.7310183653
0.7417661518
0.75207289
0.7619939807
0.7716122931
0.7810267735
0.7903434545
0.7996687286
0.8091043008
0.8187432565
0.828666895
0.8389422123
0.8496201068
0.8607345114
0.8723027302
0.8843273264
0.8967999789
0.9097078862
0.9230435691
0.9368194419
0.9510892449
0.9659799519
0.9817393424
0.9988133102
1.017951157
0.5686303252
0.5725445949
0.5799336786
0.5893913524
0.6001015981
0.6115293848
0.6233457848
0.635375139
0.6475437826
0.6598435556
0.6722734784
0.6847736713
0.6972153841
0.7094392714
0.721303425
0.7327162558
0.7436476004
0.7541231906
0.7642111432
0.7740073013
0.7836228576
0.7931750586
0.8027804741
0.8125499815
0.8225847749
0.8329730221
0.8437870861
0.8550814525
0.8668916318
0.8792343754
0.8921095754
0.9055042541
0.9193991509
0.933778628
0.9486450576
0.9640394883
0.9800718873
0.9969656768
1.01513136
1.035262291
0.5672695124
0.5712440689
0.5787542042
0.588371816
0.5992613978
0.6108755159
0.6228813294
0.635106224
0.6474837899
0.660015249
0.6727041893
0.6854822271
0.6982017809
0.7106840432
0.7227751854
0.7343820751
0.7454815641
0.7561112672
0.7663527794
0.7763150603
0.7861212838
0.7958994565
0.8057758382
0.815870041
0.8262910025
0.8371334503
0.8484748288
0.860372908
0.8728644246
0.8859651542
0.8996718145
0.9139661843
0.928821874
0.9442143322
0.9601350688
0.9766116344
0.993736435
1.011708796
1.030905927
1.051970961
0.5659508393
0.569984927
0.5776143122
0.5873890762
0.5984541504
0.6102497935
0.6224396188
0.6348546704
0.647436536
0.6601965937
0.6731429452
0.6861968955
0.6991895052
0.7119210381
0.7242261197
0.7360117522
0.7472637015
0.7580327948
0.7684146295
0.7785311454
0.7885169746
0.7985102155
0.8086461593
0.8190525766
0.8298456681
0.8411263173
0.8529766883
0.8654574817
0.8786062874
0.8924375023
0.9069442381
0.9221025832
0.937878578
0.9542383608
0.9711622975
0.9886644375
1.006820238
1.025806829
1.045972342
1.067918071
0.5646722377
0.5687651235
0.576512027
0.5864412588
0.5976781109
0.6096506256
0.6220192344
0.6346192558
0.6474010259
0.660386867
0.6735892675
0.6869171778
0.7001775958
0.7131485178
0.7256537612
0.7376024588
0.7489912724
0.7598854264
0.7703947818
0.7806538495
0.7908079677
0.8010044835
0.8113869313
0.8220905643
0.8332382878
0.8449366764
0.857272211
0.8703081518
0.8840825866
0.8986081903
0.9138741512
0.9298506038
0.9464958523
0.9637667203
0.9816326998
1.00009509
1.019214003
1.039147502
1.060220181
1.083001166
0.563431837
0.5675828237
0.5754456051
0.5855267493
0.5969318256
0.6090767464
0.6216191206
0.6343991592
0.6473767071
0.6605858347
0.6740432139
0.68764315
0.7011657086
0.7143654631
0.7270565709
0.739152604
0.750663137
0.7616687848
0.7722936603
0.7826841847
0.7929954623
0.8033831217
0.813998072
0.8249823207
0.8364648842
0.8485575437
0.8613506908
0.8749097957
0.8892731402
0.9044514252
0.9204297389
0.9371722002
0.9546294891
0.9727494848
0.9914915645
1.010845646
1.030858819
1.051673948
1.073598135
1.097177999
0.5622279547
0.5664363928
0.5744135221
0.5846441754
0.5962141105
0.6085271891
0.6212385513
0.6341939194
0.6473634196
0.6607936928
0.6745053138
0.6883753952
0.7021540491
0.7155715139
0.7284338902
0.7406617895
0.7522796949
0.7633843774
0.7741139159
0.7846257635
0.7950837161
0.805650648
0.8164839493
0.8277316522
0.8395283025
0.8519904256
0.8652119538
0.8792602714
0.8941736276
0.9099606043
0.9266021554
0.9440565087
0.9622670695
0.9811734421
1.000726015
1.020905107
1.041747524
1.063385063
1.08611322
1.110464765
0.5610590871
0.5653243851
0.5734144581
0.5837923893
0.5955240278
0.6080012564
0.6208770924
0.6340033895
0.6473613412
0.6610110043
0.6749764982
0.689114927
0.7031432936
0.7167668956
0.7297858706
0.7421307274
0.7538427736
0.7650354407
0.7758602276
0.7864845685
0.7970797984
0.8078149936
0.8188531616
0.8303476788
0.8424380963
0.8552452841
0.8688664144
0.8833705664
0.898795818
0.9151485882
0.9324057784
0.9505199837
0.9694278403
0.9890615272
1.009363767
1.030307263
1.051921383
1.074330905
1.097825022
1.122929838
0.5599238998
0.5642455324
0.5724472835
0.5829704485
0.5948608625
0.6074984905
0.6205345642
0.6338276904
0.6473709315
0.6612386336
0.6754580252
0.689863109
0.7041345041
0.7179523345
0.7311133841
0.7435611282
0.7553554711
0.7666267265
0.7775390305
0.7882686265
0.7989932193
0.8098870919
0.8211180894
0.8328443481
0.8452099989
0.8583399542
0.872334417
0.8872640302
0.9031666419
0.920046535
0.9378767025
0.9566044181
0.9761601003
0.9964693921
1.017468702
1.039125083
1.061463219
1.084604584
1.108836657
1.134684572
0.5588212185
0.5631987331
0.5715110451
0.5821775986
0.5942240993
0.6070186438
0.6202110047
0.6336671644
0.6473928754
0.6614776802
0.6759514063
0.6906215725
0.7051290401
0.7191289662
0.7324179215
0.7449555652
0.7568219658
0.7681642443
0.7791581879
0.7899876115
0.8008354603
0.8118803314
0.823294257
0.8352396858
0.8478650361
0.8612990815
0.8756449527
0.8909748072
0.9073262591
0.9247015046
0.943069761
0.9623732502
0.9825366588
1.003479899
1.025134311
1.047463121
1.070488829
1.09433287
1.119284815
1.145873138
0.557750021
0.5621830428
0.5706049537
0.5814132565
0.5936134013
0.6065616514
0.6199066346
0.6335223318
0.64742803
0.6617294157
0.6764583343
0.6913921372
0.7061284719
0.7202982443
0.7337014828
0.7463173251
0.758247305
0.7696549768
0.7807266305
0.7916524022
0.8026194414
0.8138099135
0.8253995549
0.8375548476
0.8504283623
0.8641526899
0.8788338919
0.8945456561
0.9113253747
0.9291731695
0.9480545284
0.9679067684
0.9886491863
1.010196615
1.032476403
1.055449546
1.07913851
1.103667335
1.129330526
1.156662667
0.5567094304
0.5611976664
0.5697283733
0.580676996
0.5930285906
0.6061276068
0.6196218254
0.6333938506
0.6474773743
0.6619952243
0.6769806161
0.6921767369
0.707134499
0.7214618506
0.7349664677
0.7476502523
0.759637184
0.771106586
0.782253983
0.7932746227
0.8043589587
0.815692161
0.827453382
0.8398130489
0.8529279231
0.866934512
0.8819419092
0.8980253901
0.9152221117
0.9335300449
0.9529108567
0.9732969416
0.9946023802
1.016737409
1.039626254
1.063228958
1.087569567
1.112776495
1.139150729
1.167233872
0.5556987101
0.5602419514
0.5688808124
0.5799685357
0.5924696331
0.6057167406
0.6193570729
0.6332824817
0.6475419658
0.6622765498
0.6775201123
0.6929773519
0.7081488748
0.7226216133
0.7362155691
0.7489585945
0.7609977286
0.7725271243
0.7837502009
0.7948661922
0.8060681269
0.8175438205
0.8294757662
0.8420384515
0.8553930478
0.869680221
0.8850122869
0.9014661856
0.9190787739
0.9378456817
0.9577245136
0.9786425643
1.000508709
1.023228871
1.046724723
1.070956131
1.095949541
1.121838342
1.148929987
1.177771919
0.5547172605
0.5593153844
0.5680619185
0.5792877308
0.5919366255
0.6053294044
0.6191129753
0.6331890599
0.6476229023
0.6625748492
0.6780786854
0.6937959514
0.7091733426
0.7237794348
0.7374516763
0.7502468586
0.7623352891
0.7739247648
0.7852252316
0.7964389059
0.8077608555
0.8193814001
0.8314865179
0.8442550802
0.8578530716
0.8724257012
0.8880887804
0.9049210066
0.9229588198
0.9421952197
0.9625833808
0.9840451733
1.006484079
1.029801685
1.053917187
1.078790309
1.104449696
1.13103298
1.158852396
1.188457928
0.5537646184
0.558417589
0.567271474
0.5786345665
0.5914297873
0.6049660595
0.6188902173
0.6331144719
0.6477212917
0.6628915542
0.6786581557
0.6946344461
0.7102095828
0.7249372323
0.7386777906
0.7515196798
0.7636562566
0.7753075622
0.7866887172
0.7980040658
0.8094503831
0.8212205725
0.8335044597
0.8464858322
0.8603360763
0.8752054761
0.8912137077
0.9084413543
0.9269243054
0.9466525802
0.9675744456
0.9896058356
1.012644335
1.036586671
1.061348936
1.086889836
1.113238883
1.140535843
1.169094405
1.19946182
0.5528404574
0.5575483266
0.566509396
0.5780091562
0.5909494562
0.6046272701
0.6186895606
0.6330596412
0.6478382297
0.6632280412
0.6792602684
0.6954946523
0.711259174
0.7260968942
0.739896957
0.7527817112
0.7649669058
0.7766832524
0.7881497465
0.7995721725
0.8111488879
0.8230756711
0.835546771
0.8487516305
0.8628678189
0.8780513935
0.8944263925
0.9120754976
0.9310339473
0.9512883912
0.9727815662
0.9954226532
1.019102344
1.043711309
1.069161074
1.095407464
1.122478372
1.150512255
1.179819368
1.210937135
0.5519445908
0.5567074987
0.5657757375
0.5774117417
0.5904960883
0.6043137028
0.6185118416
0.6330255215
0.6479747846
0.6635856096
0.6798866705
0.6963782692
0.7123235688
0.7272602531
0.7411122141
0.7540375372
0.7662732719
0.7780590958
0.7896166648
0.8011526906
0.8128671855
0.8249592952
0.8376284714
0.8510707605
0.8654709066
0.8809916405
0.8977620437
0.9158672525
0.9353418203
0.9561685755
0.9782838536
1.001588812
1.025965613
1.051296893
1.077487269
1.104486845
1.132318291
1.161113986
1.191174317
1.223018109
0.5510769759
0.5558951516
0.565070692
0.5768426965
0.590070261
0.6040261302
0.6183579747
0.6330130969
0.648131992
0.6639654693
0.6805388985
0.6972868684
0.7134040859
0.7284290766
0.7423265654
0.7552916141
0.7675810646
0.7794417724
0.7910969479
0.8027538912
0.814614525
0.8268820389
0.8397620639
0.8534584177
0.8681642518
0.8840501275
0.9012510971
0.9198552959
0.9398966174
0.9613534781
0.9841545711
1.008191184
1.033334593
1.059456633
1.086451817
1.114260743
1.14289614
1.17247814
1.203289185
1.23581907
0.5502377192
0.555111482
0.5643945987
0.5763025321
0.5896726802
0.6037654402
0.6182289634
0.6330233915
0.6483108564
0.664368736
0.6812183769
0.6982218968
0.7145019183
0.7296050785
0.7435429735
0.756548241
0.7688956253
0.7808373311
0.7925971445
0.8043827802
0.8163984902
0.8288523524
0.8419573504
0.8559264815
0.870962823
0.8872462411
0.9049189862
0.9240729394
0.9447413737
0.9668974732
0.9904605842
1.015309645
1.041301978
1.068295091
1.096169412
1.124851336
1.154337728
1.184728693
1.216278652
1.249436177
0.5494270821
0.5543568429
0.5637479489
0.575791904
0.5893041888
0.6035326486
0.6181259172
0.6330574862
0.6485123627
0.6647964368
0.6819264284
0.6991846918
0.7156181563
0.7307899489
0.7447643782
0.7578115657
0.7702219291
0.7822511986
0.7941228928
0.8060451167
0.8182250123
0.8308765451
0.8442214287
0.8584835201
0.87387768
0.890594927
0.9087862717
0.928548277
0.9499135964
0.9728490692