/*--------------------------------*- C++ -*----------------------------------*\
| =========                 |                                                 |
| \\      /  F ield         | foam-extend: Open Source CFD                    |
|  \\    /   O peration     | Version:     3.2                                |
|   \\  /    A nd           | Web:         http://www.foam-extend.org         |
|    \\/     M anipulation  | For copyright notice see file Copyright         |
\*---------------------------------------------------------------------------*/
FoamFile
{
    version     2.0;
    format      ascii;
    class       volScalarField;
    location    "0.12";
    object      nut;
}
// * * * * * * * * * * * * * * * * * * * * * * * * * * * * * * * * * * * * * //

dimensions      [0 2 -1 0 0 0 0];

internalField   nonuniform List<scalar> 
18000
(
3.130043459e-05
2.905027948e-05
2.78074931e-05
2.71485556e-05
2.695366081e-05
2.712766914e-05
2.76096816e-05
2.835111436e-05
2.931334277e-05
3.046556787e-05
3.178275185e-05
3.324392952e-05
3.483095639e-05
3.652763824e-05
3.831915574e-05
4.019170444e-05
4.213228393e-05
4.412858619e-05
4.616894622e-05
4.824232951e-05
5.033833916e-05
5.244723093e-05
5.455992909e-05
5.666803887e-05
5.876385273e-05
6.084034968e-05
6.289118614e-05
6.491067907e-05
6.689378132e-05
6.88360499e-05
7.073360929e-05
7.258311166e-05
7.438170063e-05
7.612699266e-05
7.781710366e-05
7.945076981e-05
8.102765047e-05
8.254904955e-05
8.402209616e-05
8.551783829e-05
0.0002537183621
0.000238555564
0.0002264478893
0.0002166566612
0.000208697172
0.0002021081441
0.0001966087672
0.0001920090945
0.0001881680231
0.0001849805528
0.0001823666304
0.0001802631934
0.0001786186823
0.0001773894531
0.0001765374493
0.0001760286751
0.0001758321785
0.0001759193641
0.000176263524
0.0001768395191
0.0001776235663
0.0001785931025
0.0001797267025
0.0001810040366
0.000182405854
0.0001839139809
0.0001855113273
0.0001871818948
0.0001889107813
0.0001906841805
0.0001924893726
0.0001943147045
0.0001961495576
0.0001979842978
0.000199810205
0.0002016193808
0.0002034047472
0.0002051615042
0.0002069055946
0.000208841472
0.0005867239506
0.0005609016731
0.0005404012624
0.0005231806552
0.0005082353914
0.0004949049695
0.0004828649546
0.000471892334
0.0004618242859
0.0004525376899
0.0004439369906
0.0004359475391
0.0004285091498
0.0004215721484
0.0004150949011
0.0004090420588
0.0004033832627
0.0003980921398
0.000393145498
0.0003885226667
0.0003842049578
0.0003801752298
0.000376417542
0.000372916889
0.0003696590029
0.0003666302109
0.0003638173387
0.0003612076483
0.000358788801
0.0003565488405
0.0003544761869
0.0003525596417
0.0003507884013
0.0003491520859
0.0003476408001
0.0003462452738
0.0003449572968
0.0003437708275
0.0003426843303
0.0003415928066
0.0009379487802
0.0009066413613
0.0008826390197
0.0008630412466
0.0008462322519
0.0008313079505
0.0008178455778
0.0008055640799
0.0007942637643
0.0007837935566
0.0007740352652
0.0007648946465
0.0007562950395
0.0007481732625
0.0007404769569
0.0007331627381
0.0007261948014
0.0007195437444
0.0007131855308
0.0007071005628
0.0007012728486
0.0006956892635
0.0006903389084
0.0006852125647
0.0006803022438
0.000675600822
0.0006711017526
0.0006667988448
0.000662686099
0.0006587575897
0.0006550073861
0.0006514295046
0.000648017894
0.0006447664589
0.0006416691633
0.0006387202439
0.0006359143559
0.0006332413714
0.0006306469112
0.0006276598752
0.00126149379
0.001229568023
0.001205507691
0.001186507065
0.00117065174
0.001156906586
0.001144772477
0.001133921688
0.001124123021
0.001115200862
0.001107016438
0.00109945723
0.001092430341
0.001085858313
0.001079676427
0.001073830846
0.001068277184
0.001062979281
0.001057908065
0.001053040492
0.001048358546
0.001043848318
0.001039499184
0.00103530308
0.001031253889
0.001027346921
0.001023578493
0.001019945595
0.001016445626
0.001013076204
0.001009835031
0.001006719835
0.001003728384
0.001000858638
0.0009981091009
0.0009954791826
0.0009929682092
0.0009905604535
0.0009881557965
0.0009851473468
0.001537030862
0.001507878303
0.00148583533
0.001468848347
0.001455065108
0.001443466805
0.001433534467
0.00142492288
0.001417385448
0.001410732507
0.001404812341
0.00139950046
0.001394693145
0.001390303414
0.001386258391
0.001382497456
0.001378970763
0.001375637936
0.001372466825
0.001369432317
0.001366515207
0.001363701143
0.00136097968
0.001358343449
0.001355787436
0.001353308384
0.001350904301
0.001348574063
0.001346317107
0.001344133207
0.001342022328
0.001339984572
0.001338020267
0.001336130246
0.001334316419
0.001332582076
0.001330929815
0.001329341264
0.001327708566
0.001325476299
0.001757947737
0.001733250932
0.001714177133
0.00169964426
0.001688105032
0.001678666724
0.001670843461
0.001664300764
0.001658792773
0.001654126232
0.001650144164
0.001646716536
0.001643734649
0.001641107539
0.001638759522
0.001636628323
0.001634663492
0.001632824941
0.001631081522
0.001629409679
0.001627792158
0.001626216833
0.00162467565
0.001623163715
0.001621678515
0.001620219269
0.001618786406
0.001617381149
0.001616005205
0.001614660537
0.001613349248
0.001612073589
0.00161083616
0.001609640398
0.001608491396
0.001607396193
0.001606361162
0.001605369444
0.001604319225
0.00160270904
0.001926624282
0.001906744514
0.001890791152
0.001878596079
0.001869022957
0.001861361188
0.001855191479
0.001850208436
0.001846177478
0.001842908463
0.001840244053
0.001838052879
0.001836225316
0.001834670547
0.00183331431
0.001832096965
0.001830971696
0.001829902778
0.001828863899
0.001827836561
0.00182680861
0.001825772908
0.001824726176
0.001823668004
0.001822600038
0.001821525307
0.001820447703
0.001819371572
0.001818301425
0.001817241744
0.001816196918
0.001815171336
0.001814169724
0.0018131978
0.001812263238
0.001811375699
0.001810543218
0.001809746393
0.001808875937
0.001807425904
0.002050185034
0.002034662294
0.002021487613
0.002011236052
0.002003186115
0.001996819268
0.001991794463
0.001987841689
0.00198474087
0.001982306662
0.001980382501
0.001978836886
0.001977560819
0.001976465633
0.001975480899
0.001974552311
0.001973639543
0.001972714106
0.001971757293
0.001970758262
0.001969712306
0.001968619359
0.001967482709
0.001966307953
0.001965102146
0.001963873137
0.001962629062
0.001961377972
0.001960127588
0.001958885166
0.001957657502
0.001956451127
0.001955272758
0.001954130064
0.001953032582
0.001951991046
0.00195101174
0.001950064981
0.001949013582
0.00194728857
0.002137698428
0.002125696572
0.002114727739
0.002105933071
0.002098954791
0.002093447194
0.002089142348
0.002085801964
0.002083217273
0.002081204912
0.002079606857
0.002078289995
0.002077145324
0.002076086485
0.002075047721
0.002073981408
0.002072855374
0.002071650193
0.002070356607
0.002068973188
0.0020675043
0.002065958372
0.002064346494
0.002062681292
0.002060976066
0.002059244139
0.002057498394
0.00205575095
0.002054012988
0.002052294686
0.002050605316
0.002048953524
0.00204734788
0.002045797637
0.002044313352
0.002042905006
0.002041573182
0.002040269672
0.002038810714
0.002036521797
0.00219821457
0.002188826909
0.002179444542
0.002171637259
0.002165341878
0.002160353125
0.002156461318
0.002153449862
0.002151113758
0.002149265672
0.002147741536
0.002146403335
0.002145139982
0.002143866434
0.002142521497
0.002141064774
0.002139473227
0.002137737698
0.002135859664
0.002133848358
0.002131718347
0.002129487545
0.002127175662
0.002124803018
0.002122389669
0.002119954792
0.002117516282
0.002115090507
0.002112692211
0.002110334543
0.002108029239
0.002105786996
0.002103618062
0.002101532895
0.002099542252
0.002097653683
0.002095858665
0.002094083825
0.002092085338
0.002089055973
0.002239652618
0.002232074572
0.002223723534
0.002216507819
0.002210593858
0.002205882695
0.002202204469
0.002199351449
0.002197112726
0.002195289475
0.002193705839
0.00219221478
0.002190700478
0.002189077845
0.002187289909
0.002185303901
0.002183106779
0.002180700752
0.002178099185
0.002175323072
0.002172398149
0.002169352625
0.002166215471
0.002163015183
0.002159778926
0.002156531972
0.002153297386
0.002150095875
0.002146945794
0.002143863281
0.002140862531
0.002137956246
0.002135156221
0.002132473804
0.002129919236
0.002127496142
0.002125183899
0.002122878341
0.002120264867
0.002116384371
0.002268311141
0.00226190943
0.002254147983
0.002247220999
0.002241473012
0.002236881734
0.002233299201
0.002230513426
0.00222829747
0.002226433126
0.002224726793
0.002223018241
0.002221184401
0.002219139033
0.00221682938
0.002214231041
0.002211342137
0.002208177578
0.002204763928
0.002201135105
0.00219732898
0.002193384806
0.002189341361
0.002185235689
0.002181102285
0.002176972639
0.002172875026
0.002168834487
0.00216487296
0.002161009523
0.002157260779
0.002153641357
0.002150164464
0.002146842036
0.002143683159
0.002140686192
0.002137815755
0.002134931938
0.002131640303
0.002126815139
0.002288824782
0.002283141709
0.002275648818
0.002268797374
0.002263073253
0.002258507727
0.00225495922
0.002252199426
0.002249975762
0.002248043101
0.002246184492
0.002244222797
0.002242025757
0.002239505537
0.002236614285
0.002233337369
0.002229685806
0.002225688972
0.002221388231
0.002216831761
0.002212070595
0.002207155759
0.002202136311
0.002197058102
0.00219196307
0.002186888916
0.00218186906
0.002176932781
0.002172105487
0.002167409106
0.002162862561
0.002158482325
0.002154282889
0.002150276514
0.002146470529
0.002142856741
0.002139382378
0.002135866778
0.002131826607
0.002125955664
0.002304377757
0.002299102937
0.002291662224
0.002284747869
0.002278962511
0.002274374037
0.002270834524
0.002268088698
0.002265849553
0.002263838097
0.002261809
0.002259565163
0.002256963976
0.002253916453
0.002250381223
0.002246355632
0.002241865987
0.002236958379
0.002231690882
0.002226127411
0.002220333208
0.002214371727
0.002208302645
0.002202180718
0.002196055256
0.002189970002
0.002183963299
0.002178068428
0.002172314053
0.002166724763
0.002161321653
0.002156122913
0.002151144174
0.002146397759
0.002141888669
0.002137600895
0.002133461618
0.002129244271
0.002124367259
0.002117329887
0.002317025408
0.002311957709
0.00230443268
0.002297373309
0.002291483068
0.002286854232
0.002283322081
0.002280594942
0.002278343323
0.002276247982
0.002274030736
0.002271472171
0.002268419023
0.00226478256
0.00226053043
0.002255675014
0.002250260966
0.002244353786
0.002238030396
0.002231371986
0.002224458968
0.002217367713
0.00221016863
0.002202925246
0.002195693936
0.002188524101
0.0021814586
0.002174534327
0.002167782868
0.002161231196
0.002154902373
0.002148816156
0.002142989166
0.002137433554
0.002132151461
0.00212711784
0.002122237179
0.002117231728
0.002111411943
0.00210306821
0.002328020066
0.002323032462
0.002315342137
0.002308094938
0.002302084799
0.002297419299
0.00229390799
0.002291214135
0.002288958144
0.002286774499
0.002284348149
0.002281435642
0.002277873628
0.002273576021
0.002268523002
0.002262745877
0.002256311296
0.002249307207
0.002241831629
0.002233984471
0.002225862075
0.002217553921
0.002209140956
0.002200695011
0.002192278936
0.002183947147
0.0021757464
0.002167716648
0.002159891933
0.002152301258
0.002144969392
0.002137917481
0.002131163001
0.002124717744
0.002118580549
0.002112716258
0.002107004221
0.002101110503
0.002094228283
0.002084425162
0.002338085251
0.002333097716
0.002325196962
0.002317744875
0.002311618852
0.002306934537
0.002303467624
0.002300827972
0.002298578441
0.002296301376
0.00229364115
0.002290329157
0.002286193378
0.002281153778
0.002275207562
0.002268409625
0.002260852773
0.00225265064
0.002243924542
0.002234794328
0.002225372662
0.002215761932
0.002206053003
0.002196325175
0.002186646843
0.002177076527
0.002167664045
0.002158451705
0.002149475439
0.002140765857
0.002132349157
0.002124247709
0.002116479759
0.002109056639
0.002101973619
0.002095184639
0.002088541968
0.002081651307
0.002073580588
0.002062162946
0.00234761918
0.002342580108
0.002334445632
0.002326787668
0.002320562056
0.002315886234
0.002312494178
0.002309934002
0.002307703489
0.002305326991
0.002302404837
0.002298642706
0.002293862227
0.00228799386
0.002281057292
0.002273136397
0.002264354677
0.00225485475
0.002244783214
0.002234280675
0.002223476032
0.002212483853
0.002201403828
0.002190321464
0.00217930943
0.002168429174
0.002157732564
0.002147263433
0.002137058979
0.002127150984
0.002117566809
0.002108329934
0.002099459373
0.002090966055
0.002082841667
0.002075028941
0.002067351987
0.002059353535
0.002049971029
0.002036795931
0.002356831657
0.002351706159
0.002343327383
0.002335472164
0.002329170971
0.002324537177
0.002321255147
0.002318802691
0.00231660478
0.002314121843
0.00231090688
0.002306639889
0.002301139416
0.002294351956
0.002286326112
0.002277180777
0.002267074942
0.002256183393
0.002244679601
0.002232725198
0.002220464608
0.002208023263
0.002195508053
0.002183009001
0.002170601463
0.002158348424
0.002146302661
0.002134508661
0.002123004265
0.002111822038
0.002100990319
0.002090533688
0.002080472064
0.002070816236
0.002061554661
0.002052619227
0.002043806093
0.002034594794
0.002023791302
0.002008745284
0.002365828756
0.00236059174
0.002351965193
0.002343926808
0.002337578641
0.002333024288
0.002329890392
0.002327575607
0.002325424094
0.002322826312
0.002319284848
0.002314454714
0.002308155685
0.002300357
0.00229114358
0.002280675946
0.002269153473
0.002256786
0.002243774899
0.002230302389
0.002216526994
0.002202583037
0.002188582455
0.002174617706
0.002160764984
0.002147087293
0.002133637153
0.002120458876
0.002107590429
0.002095064905
0.002082911581
0.002071156288
0.002059820182
0.002048914442
0.002038425106
0.002028274444
0.002018232541
0.0020077187
0.001995412227
0.001978430495
0.002374661508
0.002369293708
0.002360419682
0.002352215021
0.002345850888
0.002341415393
0.002338469107
0.002336322348
0.00233423022
0.002331507063
0.00232760221
0.002322147133
0.002314968307
0.002306065666
0.00229556881
0.002283686953
0.002270664679
0.002256749273
0.002242170285
0.002227129245
0.002211796558
0.002196312804
0.002180792315
0.002165327592
0.002149993679
0.002134852072
0.002119953968
0.002105342859
0.002091056531
0.002077128582
0.002063589425
0.002050466521
0.002037782833
0.002025550784
0.002013755319
0.002002311313
0.001990966628
0.001979087111
0.001965237197
0.00194632304
0.002383352116
0.002377837834
0.00236871837
0.002360365337
0.002354016976
0.002349740179
0.002347020856
0.002345071545
0.002343049823
0.002340187712
0.002335878758
0.00232973319
0.002321590949
0.002311491919
0.002299619659
0.002286239453
0.00227164565
0.002256124669
0.002239933592
0.002223291041
0.002206376248
0.002189332781
0.002172274317
0.00215529082
0.002138454207
0.002121823102
0.002105446579
0.002089366978
0.00207362196
0.002058245944
0.002043270992
0.002028726866
0.002014639193
0.002001022826
0.001987863492
0.001975071927
0.001962379702
0.001949110083
0.001933731986
0.001912973682
0.002391907362
0.002386233133
0.00237687074
0.002368386975
0.002362085508
0.002358006265
0.002355551736
0.002353827035
0.0023518836
0.002348864928
0.002344106628
0.002337200974
0.002328009538
0.00231662276
0.002303288279
0.002288334969
0.002272110989
0.002254942661
0.002237112871
0.002218854079
0.002200350475
0.002181744799
0.002163146757
0.002144641197
0.002126295133
0.002108163306
0.002090292313
0.002072723504
0.002055494941
0.002038642637
0.002022201212
0.002006203734
0.001990679651
0.00197564776
0.001961096928
0.001946937952
0.001932893983
0.001918260434
0.001901437186
0.001879019052
0.002400325263
0.002394479005
0.002384875803
0.002376277703
0.002370052498
0.002366207424
0.002364052705
0.002362576274
0.002360714756
0.002357516979
0.002352258927
0.002344519302
0.002334190995
0.002321426971
0.002306549788
0.002289959342
0.002272060894
0.002253220283
0.002233743247
0.002213871778
0.002193790387
0.002173636767
0.00215351327
0.002133497266
0.00211364952
0.00209402044
0.002074654419
0.002055592619
0.002036874636
0.002018539375
0.002000625369
0.001983170351
0.00196620902
0.001949765888
0.001933835677
0.001918334121
0.001902985284
0.001887074444
0.001868964403
0.001845168642
0.002408598434
0.002402568883
0.002392725983
0.002384027925
0.002377905632
0.002374327997
0.002372504131
0.002371295024
0.002369513838
0.002366108717
0.002360294867
0.002351643019
0.00234008867
0.002325860612
0.002309367723
0.002291087994
0.002271486027
0.002250965443
0.002229850549
0.002208387514
0.002186755907
0.002165083939
0.002143463406
0.002121962297
0.002100634441
0.002079526233
0.00205868093
0.002038141067
0.002017949584
0.001998150153
0.001978787017
0.001959904245
0.001941543425
0.001923736671
0.001906487387
0.001889721388
0.001873173642
0.001856138462
0.001836976104
0.001812172908
0.002416715962
0.002410492271
0.002400409329
0.002391623057
0.002385626805
0.00238234559
0.002380878659
0.002379950402
0.002378241979
0.002374595029
0.00236816343
0.00235851686
0.002345646372
0.002329871154
0.002311698118
0.002291689762
0.002270370941
0.002248179754
0.002225453414
0.002202435954
0.002179296279
0.00215614874
0.002133071801
0.002110122898
0.002087349116
0.002064794092
0.00204250193
0.002020518921
0.00199889386
0.001977677601
0.00195692227
0.001936680163
0.001917001444
0.001897927639
0.001879473459
0.001861579628
0.001844001597
0.001826061285
0.001806149571
0.001780774633
0.00242466465
0.002418236112
0.002407911012
0.002399045173
0.002393193929
0.002390233066
0.002389143405
0.002388503279
0.002386853525
0.002382923701
0.002375806477
0.002365078789
0.002350801888
0.002333401057
0.002313493004
0.002291730136
0.002268696836
0.002244860667
0.002220564707
0.002196043719
0.002171450029
0.002146880067
0.002122396922
0.002098047259
0.00207387267
0.002049916344
0.002026226166
0.002002855378
0.001979861769
0.001957306223
0.001935251158
0.001913759024
0.001892890099
0.00187269678
0.001853207116
0.001834380598
0.001816001118
0.001797433808
0.001777127538
0.00175164825
0.002432429987
0.00242578585
0.002415214514
0.00240627434
0.002400582446
0.00239796025
0.002397261866
0.002396910431
0.002395298434
0.002391038079
0.002383161656
0.002371263137
0.002355490288
0.002336391137
0.00231470366
0.00229117419
0.002266444011
0.002241003307
0.002215192677
0.002189229888
0.002163244859
0.002137312684
0.002111480017
0.002085783684
0.002060262213
0.002034961719
0.002009937714
0.001985254281
0.001960981816
0.001937194311
0.001913966899
0.001891373904
0.001869486847
0.001848369793
0.001828065149
0.001808553405
0.001789652006
0.001770779644
0.001750460518
0.001725334264
0.002439996983
0.002433126355
0.002422302664
0.002413289798
0.002407766678
0.002405495488
0.002405195717
0.002405126579
0.002403524578
0.002398879635
0.002390165231
0.002377003656
0.002359647135
0.002338783801
0.002315283697
0.002289989344
0.002263594131
0.002236602167
0.002209342078
0.002182006603
0.002154697855
0.002127467106
0.002100344729
0.002073359922
0.002046551753
0.002019973637
0.001993693311
0.001967790075
0.001942350752
0.001917465492
0.001893224284
0.001869714561
0.001847019502
0.001825214669
0.001804356441
0.001784446315
0.001765336525
0.001746502544
0.001726547956
0.001702177501
0.002447350911
0.002440242734
0.002429158553
0.002420071022
0.002414721078
0.002412807107
0.002412906501
0.002413106333
0.002411479951
0.002406390438
0.002396754806
0.002382236459
0.002363211556
0.002340526119
0.002315191972
0.002288147933
0.002260132366
0.002231652778
0.002203015425
0.00217438002
0.002145816243
0.002117350275
0.002088997722
0.002060783659
0.002032752388
0.002004969799
0.00197752094
0.001950504891
0.001924028614
0.001898201098
0.001873128736
0.001848912511
0.001825646688
0.001803416893
0.001782291373
0.001762289975
0.001743296407
0.001724837881
0.001705586567
0.001682278308
0.002454477959
0.002447121045
0.002435766345
0.00242659867
0.002421421349
0.002419864751
0.002420357206
0.002420806023
0.002419114757
0.002413515505
0.002402871903
0.002386902787
0.002366129116
0.002341572677
0.002314395255
0.002285629584
0.002256049389
0.00222615337
0.00219621443
0.002166351688
0.00213659887
0.002106957223
0.002077430519
0.002048044419
0.002018854029
0.001989943404
0.001961420132
0.001933407443
0.001906035685
0.001879434642
0.001853727763
0.001829028956
0.001805441769
0.001783059008
0.00176195676
0.001742167699
0.001723598908
0.001705815925
0.001687534364
0.001665465045
0.002461365781
0.002453748898
0.002442111974
0.002432855401
0.002427845437
0.002426640571
0.002427513684
0.002428185355
0.002426383314
0.002420204933
0.002408464309
0.002390951512
0.0023683544
0.002341888106
0.002312870583
0.002282423291
0.00225134319
0.00222010652
0.002188941666
0.002157920411
0.002127038429
0.002096273735
0.002065622574
0.002035116908
0.002004828778
0.001974866215
0.001945364325
0.001916474276
0.001888352203
0.001861149619
0.001835006504
0.001810047799
0.001786383175
0.001764108176
0.001743300761
0.001723998118
0.001706118152
0.001689243934
0.001672097745
0.001651294264
0.002468003949
0.002460115949
0.002448183696
0.002438826552
0.002433974356
0.002433110248
0.002434345881
0.002435208872
0.002433245732
0.002426415779
0.002413488118
0.002394341294
0.00236985319
0.002341449184
0.002310607182
0.002278529121
0.002246020628
0.002213520716
0.002181202357
0.002149084508
0.002117124334
0.002085279912
0.002053545469
0.002021965676
0.001990635814
0.001959693408
0.001929305381
0.001899653667
0.001870921429
0.00184328156
0.001816888708
0.001791875595
0.001768353462
0.001746414669
0.001726131308
0.001707534381
0.001690536526
0.001674712223
0.001658746585
0.001639081904
0.002474384288
0.002466214264
0.002453972522
0.002444500658
0.002439792848
0.002439253811
0.002440828851
0.00244184715
0.00243966929
0.002432113591
0.002417909379
0.00239704228
0.002370604148
0.002340246402
0.002307607855
0.002273959437
0.002240098609
0.002206411717
0.002173006197
0.002139844298
0.002106846034
0.002073954336
0.002041167869
0.002008550726
0.001976227475
0.001944369932
0.001913180078
0.001882872164
0.001853656231
0.001825724776
0.001799243864
0.001774349421
0.001751148444
0.001729722929
0.001710130001
0.001692382122
0.001676368468
0.001661626406
0.001646758723
0.001627964734
0.002480501116
0.002472038571
0.002459472505
0.002449869811
0.002445289847
0.002445056248
0.002446943513
0.002448077713
0.002445629484
0.002437273557
0.002421705282
0.002399037279
0.002370599904
0.002338284901
0.002303889728
0.002268739527
0.002233604783
0.002198803584
0.00216436898
0.002130204568
0.002096196426
0.002062278448
0.002028460783
0.001994833556
0.001961555977
0.001928837848
0.001896918089
0.001866043337
0.001836448855
0.001808343541
0.001781900318
0.001757252596
0.00173449633
0.001713695127
0.001694881286
0.001678035753
0.001663005794
0.001649264089
0.001635290566
0.001616986386
0.002486351367
0.002477586389
0.00246468089
0.002454929867
0.002450458762
0.002450507882
0.002452677143
0.002453885628
0.002451110697
0.002441881198
0.002424864829
0.00240032234
0.002369847481
0.002335584691
0.002299484284
0.002262907555
0.002226577643
0.002190729214
0.00215531385
0.002120176714
0.002085174968
0.002050240617
0.002015402537
0.001980782966
0.001946580047
0.001913043875
0.001880450647
0.001849077891
0.001819182975
0.001790986694
0.001764663198
0.001740336838
0.001718085165
0.001697945069
0.001679914216
0.00166392965
0.00164978
0.001636849927
0.001623465696
0.001605197503
0.002491934626
0.002482858059
0.002469598145
0.002459680484
0.002455297567
0.002455604527
0.002458023596
0.002459263775
0.002456106478
0.002445932606
0.002427388959
0.002400906702
0.002368368029
0.002332180144
0.002294436641
0.002256513786
0.002219065954
0.002182230261
0.002145871952
0.002109780268
0.002073790106
0.002037839426
0.002001982861
0.001966379938
0.001931270693
0.001896946263
0.001863718872
0.001831893959
0.001801746595
0.001773503942
0.001747335032
0.001723348226
0.001701595271
0.001682078382
0.00166475169
0.00164949779
0.001636033504
0.001623639
0.001610469196
0.001591756
0.002497253069
0.002487856661
0.002474227861
0.002464125032
0.002459808711
0.002460347418
0.002462983248
0.00246421278
0.002460619422
0.002449434208
0.002429290117
0.002400812119
0.002366195863
0.00232811874
0.002288804086
0.002249619079
0.002211127467
0.002173356354
0.002136082337
0.002099043552
0.002062060655
0.002025085709
0.001988205546
0.001951620972
0.001915615367
0.001880520092
0.001846680668
0.0018144262
0.00178404407
0.001755761653
0.001729736247
0.001706053413
0.001684732237
0.001665733346
0.001648960193
0.001634233265
0.001621189309
0.001608995936
0.001595633332
0.001576012414
0.002502311326
0.002492587857
0.002478576561
0.002468270362
0.002463998871
0.002464742938
0.002467562691
0.002468740642
0.002464660685
0.002452402082
0.002430591314
0.002400071607
0.002363376879
0.002323459169
0.002282653942
0.002242292718
0.002202826977
0.002164163597
0.002125991033
0.002088003312
0.002050015915
0.002012003062
0.001974089317
0.001936519384
0.001899619927
0.001863760254
0.001829315211
0.001796632387
0.001766005519
0.001737655849
0.001711722551
0.001688262229
0.001667255551
0.001648616289
0.001632192484
0.001617738468
0.001604808171
0.001592457251
0.001578501106
0.001557567532
0.002507116288
0.002497059657
0.002482653415
0.002472126472
0.002467878559
0.002468802166
0.002471774198
0.002472862086
0.00246824915
0.002454860888
0.002431324732
0.002398727688
0.002359966443
0.002318268885
0.002276060885
0.002234609701
0.002194233813
0.002154712432
0.002115649309
0.002076703316
0.002037694461
0.001998626719
0.001959666774
0.001921104423
0.001883308135
0.001846681681
0.001811624361
0.001778496541
0.001747592228
0.001719120476
0.001693196648
0.001669843341
0.001648998603
0.001630526166
0.001614216716
0.001599758195
0.001586624374
0.001573767259
0.001558858168
0.001536294429
0.002511676846
0.002501282131
0.002486469891
0.002475706087
0.002471461621
0.002472540279
0.002475635002
0.002476597676
0.002471410327
0.002456842468
0.002431529978
0.002396830269
0.002356026897
0.002312621285
0.00226910392
0.002226647679
0.002185418948
0.002145065019
0.002105111285
0.002065192041
0.00202514175
0.001985000954
0.001944981569
0.001905418308
0.001866718773
0.001829316826
0.001793630857
0.001760028203
0.001728797382
0.001700129911
0.001674112748
0.001650730891
0.001629877409
0.001611365078
0.001594928094
0.001580191317
0.001566555564
0.001552883361
0.001536729928
0.001512323586
0.002516003615
0.002505267081
0.002490039361
0.002479024176
0.002474764656
0.002475975841
0.002479166437
0.002479972759
0.002474175046
0.002458384232
0.002431252102
0.002394434282
0.00235162487
0.002306592725
0.002261863197
0.002218483772
0.002176451953
0.002135282352
0.00209443111
0.00205351972
0.002012406834
0.00197117535
0.00193008421
0.001889511654
0.001849900835
0.00181171083
0.001775373662
0.001741258161
0.00170964228
0.001680695705
0.001654473745
0.001630921851
0.001609887662
0.001591134274
0.001574342774
0.001559081108
0.001544687578
0.001529952929
0.001512347824
0.001485996458
0.002520108617
0.00250902769
0.002493376678
0.002482097439
0.002477806382
0.002479130038
0.00248239299
0.002483016309
0.002476578036
0.002459527417
0.002430539503
0.002391597267
0.002346828563
0.00230025957
0.002254416927
0.002210191499
0.002167398048
0.002125421405
0.002083660017
0.002041735092
0.001999538632
0.001957200478
0.001915027133
0.001873437985
0.001832907584
0.00179391522
0.001756901378
0.001722231558
0.001690169066
0.001660858701
0.001634322345
0.001610465596
0.001589091986
0.001569918105
0.001552577258
0.00153658858
0.001521240028
0.001505269418
0.001486094393
0.001457798457
0.002524004968
0.002512578169
0.002496497748
0.002484943782
0.00248060699
0.002482025871
0.00248534132
0.002485759716
0.002478656461
0.002460315336
0.002429441876
0.002388377039
0.002341705207
0.002293695473
0.002246838597
0.002201838055
0.002158315505
0.002115532557
0.002072843585
0.002029882273
0.001986582234
0.001943123552
0.001899859703
0.001857248123
0.001815790372
0.00177598116
0.001738264868
0.001702999758
0.001670431541
0.001640678398
0.001613728429
0.001589448541
0.001567600966
0.001547860363
0.001529818851
0.001512955783
0.001496521207
0.001479217935
0.001458439037
0.001428284648
0.002527706557
0.002515933402
0.002499419112
0.002487581804
0.002483187512
0.002484687378
0.002488039288
0.002488235621
0.002480448513
0.002460791713
0.002428008303
0.002384829594
0.002336318838
0.002286969078
0.002239194668
0.00219348213
0.002149253595
0.002105657551
0.002062019487
0.002017998095
0.001973575698
0.001928984646
0.001884623845
0.001840985255
0.001798593132
0.001757953318
0.001719510351
0.001683612394
0.001650485826
0.001620221727
0.001592775318
0.001567977165
0.001545552055
0.00152513813
0.001506293415
0.001488466459
0.001470880864
0.001452219802
0.001429874856
0.001398009994
0.002531227748
0.002519108614
0.00250215755
0.002490030318
0.002485569226
0.002487138891
0.002490515056
0.002490476813
0.002481992117
0.002460999201
0.002426285599
0.002381007351
0.002330728525
0.002280142232
0.002231542879
0.002185172389
0.002140251235
0.002095828147
0.002051215946
0.002006110198
0.001960547698
0.001914813867
0.00186935078
0.001824681242
0.001781348229
0.001739865145
0.001700673911
0.001664110841
0.001630382377
0.001599553129
0.001571547327
0.001546162357
0.001523089967
0.001501937414
0.00148223545
0.001463409853
0.001444667259
0.001424683004
0.001400863795
0.001367472518
0.00253458309
0.002522119064
0.002504729728
0.002492307918
0.00248777312
0.002489404379
0.002492796271
0.002492515265
0.002483323818
0.002460978136
0.002424316983
0.002376957835
0.002324987098
0.002273268807
0.00222393122
0.002176946685
0.00213133639
0.002086065555
0.002040451017
0.00199423603
0.001947516205
0.001900629751
0.001854059166
0.001808354507
0.001764074051
0.001721736051
0.001681778056
0.001644523847
0.001610160343
0.001578727182
0.001550120155
0.001524106995
0.001500350836
0.001478433239
0.001457863518
0.001438051045
0.001418192399
0.001396963042
0.001371795267
0.001337074679
0.00253778706
0.002524979769
0.002507151882
0.002494432602
0.002489819433
0.002491506876
0.002494909382
0.002494381329
0.002484477873
0.002460765576
0.00242214112
0.002372722799
0.00231914042
0.002266394105
0.002216397559
0.002168831969
0.002122526206
0.002076380623
0.002029732673
0.001982382767
0.001934488244
0.001886438904
0.001838754659
0.00179200954