/*--------------------------------*- C++ -*----------------------------------*\
| =========                 |                                                 |
| \\      /  F ield         | foam-extend: Open Source CFD                    |
|  \\    /   O peration     | Version:     3.2                                |
|   \\  /    A nd           | Web:         http://www.foam-extend.org         |
|    \\/     M anipulation  | For copyright notice see file Copyright         |
\*---------------------------------------------------------------------------*/
FoamFile
{
    version     2.0;
    format      ascii;
    class       volScalarField;
    location    "0.12";
    object      nutNorm;
}
// * * * * * * * * * * * * * * * * * * * * * * * * * * * * * * * * * * * * * //

dimensions      [0 0 0 0 0 0 0];

internalField   nonuniform List<scalar> 
18000
(
0.00509588121
0.005043747946
0.004973052539
0.004919364539
0.004898690131
0.00490578641
0.004919782136
0.004910057068
0.004841530114
0.00468038123
0.004528675262
0.004367716833
0.004238086795
0.004120879949
0.004000746375
0.003872368794
0.003734343958
0.003587623251
0.003433006204
0.003272341917
0.003106585259
0.00293731526
0.002765722106
0.002592581458
0.002419095897
0.002246012912
0.002074020791
0.001903757954
0.001735675113
0.001570192717
0.001407607416
0.001248057681
0.001091398287
0.0009371851648
0.0007843621315
0.0006310789214
0.0004738360438
0.000308288709
0.0001366681029
9.682477076e-06
0.01540755492
0.01524992838
0.01503617863
0.0148738513
0.01481134158
0.0148327974
0.01487511391
0.01484570987
0.0146385165
0.01415127785
0.01369259014
0.01320592734
0.0128139869
0.01245960837
0.01209638078
0.01170822719
0.01129090481
0.0108472902
0.01037980076
0.009894027299
0.009392856902
0.00888106381
0.008362246588
0.007838750465
0.007314211491
0.006790889714
0.006270866204
0.00575607123
0.00524786755
0.004747526392
0.004255944691
0.003773541116
0.003299876577
0.002833608419
0.002371543237
0.001908086696
0.001432657978
0.0009321204755
0.0004132202489
2.927526982e-05
0.02596187285
0.02569627067
0.02533610036
0.0250625773
0.02495724785
0.02499340111
0.02506470481
0.02501515873
0.02466603598
0.02384503434
0.02307214131
0.02225210998
0.02159168669
0.02099455558
0.02038251373
0.01972847133
0.01902527925
0.01827778452
0.01749006049
0.01667152771
0.01582705094
0.01496467484
0.01409046301
0.01320836719
0.01232451416
0.01144271211
0.01056646768
0.009699033377
0.008842705462
0.007999625973
0.007171306248
0.006358451759
0.005560322621
0.004774656451
0.003996072335
0.003215143769
0.002414041972
0.001570631641
0.0006962799496
4.932910099e-05
0.03676454466
0.03638842606
0.03587838976
0.03549105443
0.03534189766
0.03539309419
0.0354940672
0.03542390511
0.03492951324
0.03376689482
0.03267240289
0.03151115854
0.03057593473
0.02973033883
0.02886362785
0.02793744001
0.02694165143
0.02588312597
0.02476763189
0.02360850963
0.02241264814
0.02119143945
0.01995347021
0.01870433648
0.01745271436
0.01620399665
0.01496314904
0.01373477745
0.01252213358
0.01132825078
0.01015526924
0.009004187987
0.007873959265
0.006761379323
0.005658828266
0.004552957231
0.003418518934
0.002224167626
0.0009860003339
6.985481927e-05
0.0478214144
0.04733217882
0.04666874999
0.04616492427
0.04597090889
0.0460375027
0.04616884313
0.04607757994
0.04543450063
0.04392222683
0.04249856843
0.04098808197
0.03977159132
0.03867168397
0.03754431126
0.03633957411
0.03504430393
0.03366742888
0.03221645199
0.03070872582
0.02915321117
0.02756472619
0.02595443997
0.02432963155
0.02270158636
0.02107731907
0.01946328881
0.01786548671
0.01628814241
0.01473520153
0.01320944794
0.01171218109
0.01024203814
0.00879485182
0.007360710538
0.005922250809
0.004446632265
0.002893081981
0.001282538135
9.08635287e-05
0.05913846355
0.05853344922
0.05771301846
0.05708996121
0.05685003162
0.05693238499
0.05709480747
0.05698194664
0.05618668109
0.05431652417
0.05255595373
0.05068800708
0.04918363108
0.04782342814
0.04642926003
0.04493941902
0.04333762014
0.04163490439
0.03984055045
0.03797601735
0.03605238654
0.03408798289
0.03209661868
0.03008729556
0.02807396968
0.02606531575
0.02406932147
0.02209339577
0.02014276927
0.01822232132
0.01633549458
0.01448389604
0.01266584034
0.010876174
0.009102639844
0.007323765265
0.005498938153
0.003577736575
0.001586053774
0.0001123665946
0.07072181445
0.06999829699
0.06901716986
0.06827207542
0.06798515124
0.06808363503
0.06827787092
0.06814290421
0.06719187132
0.06495540995
0.06284999956
0.06061618136
0.05881714576
0.05719052214
0.05552328072
0.05374162707
0.05182608653
0.04978986274
0.04764405171
0.04541431568
0.04311390657
0.04076473848
0.03838332911
0.03598044328
0.03357277067
0.03117068509
0.02878373878
0.02642079186
0.02408809944
0.0217914966
0.01953510029
0.01732083228
0.01514667708
0.01300647182
0.01088555852
0.008758258791
0.006576005874
0.00427850179
0.001896711446
0.0001343756495
0.08257773344
0.08173292434
0.08058731948
0.07971731618
0.07938229158
0.07949728534
0.07972408326
0.0795664905
0.07845602497
0.07584463957
0.07338627477
0.07077797572
0.06867734689
0.06677803347
0.06483129298
0.06275096005
0.06051429524
0.0581367156
0.05563117736
0.05302764478
0.05034159136
0.04759860496
0.0448179723
0.0420122628
0.03920096406
0.03639618899
0.03360909115
0.030850016
0.02812626726
0.02544465821
0.022809996
0.02022452453
0.01768589045
0.01518689772
0.01271043111
0.01022650741
0.007678418102
0.004995756728
0.002214679211
0.0001569026
0.09471263431
0.09374367945
0.09242972653
0.09143187519
0.09104761829
0.09117951054
0.09143963669
0.09125888546
0.08998523564
0.08699010393
0.08417047935
0.08117888749
0.07876956865
0.07659114876
0.07435833232
0.07197229186
0.06940694637
0.06667997842
0.0638062482
0.06082012329
0.05773935095
0.05459327929
0.0514040292
0.0481860172
0.04496159461
0.04174465433
0.03854798898
0.03538346431
0.0322594573
0.02918378246
0.02616195335
0.02319654362
0.0202848541
0.01741863127
0.0145782448
0.01172930543
0.008806771214
0.005729889406
0.002540129082
0.0001799596327
0.1071330818
0.1060370599
0.1045507975
0.1034220897
0.1029874421
0.1031366304
0.103430869
0.1032264144
0.1017857404
0.09839783241
0.09520844727
0.09182454333
0.08909927068
0.08663517665
0.08410955264
0.08141061103
0.07850885066
0.07542427296
0.07217368683
0.06879596678
0.06531118741
0.06175254546
0.05814506276
0.05450504633
0.05085777867
0.04721897454
0.04360310415
0.04002358929
0.03648990552
0.03301089211
0.02959278568
0.02623849736
0.02294497402
0.0197028798
0.01649001006
0.01326746581
0.00996167563
0.006481296978
0.002873237121
0.0002035592209
0.1198457951
0.1186197162
0.1169570897
0.1156944462
0.1152082221
0.1153751135
0.1157042674
0.1154755516
0.1138639231
0.1100739964
0.1065061498
0.1027207023
0.09967204115
0.0969155508
0.0940902291
0.09107102351
0.08782493205
0.08437432969
0.08073801986
0.07695948998
0.07306119692
0.06908027648
0.06504471971
0.06097276869
0.05689270597
0.05282211108
0.04877717133
0.04477290116
0.04081990051
0.03692805757
0.03310434899
0.02935203138
0.02566768928
0.02204087902
0.01844676111
0.01484182068
0.01114375612
0.007250385937
0.003214183532
0.0002277141316
0.1328576515
0.1314984552
0.1296553146
0.1282555839
0.1277165695
0.1279015807
0.1282664713
0.1280129235
0.1262263178
0.1220249125
0.1180696989
0.1138732591
0.1104935997
0.1074378326
0.1043057611
0.1009587553
0.0973602304
0.09353499037
0.08950388038
0.0853151093
0.08099357204
0.07658043651
0.07210673265
0.06759268314
0.06306964127
0.05855709516
0.05407298961
0.04963396918
0.0452517847
0.04093739793
0.03669854299
0.03253883003
0.02845447281
0.02443389376
0.02044955651
0.01645322173
0.01235365218
0.008037572345
0.003563152761
0.000252437432
0.1461756903
0.1446802441
0.1426523418
0.1411122979
0.1405192512
0.1407228084
0.1411242767
0.1408453125
0.1388796123
0.1342570459
0.1299053501
0.1252882469
0.1215698006
0.1182077145
0.114761675
0.1110791556
0.107119904
0.1029112108
0.09847601057
0.09386734481
0.08911260411
0.08425708296
0.07933492194
0.07436837096
0.06939192615
0.06442702926
0.0594934239
0.05460942308
0.04978795567
0.04504108219
0.04037731202
0.03580061732
0.0313068322
0.02688321858
0.02249947974
0.01810254069
0.01359201833
0.008843282056
0.003920333592
0.0002777424968
0.1598071161
0.158172214
0.1559552022
0.1542715436
0.153623193
0.1538457327
0.1542846394
0.1539796608
0.1518306517
0.1467770138
0.1420195063
0.1369718411
0.1329066358
0.1292310227
0.1254636272
0.1214376992
0.1171092327
0.1125080632
0.1076592641
0.1026208232
0.09742268525
0.09211436874
0.08673319795
0.08130349765
0.07586298088
0.07043508894
0.06504140652
0.05970195453
0.05443086739
0.0492413303
0.04414264626
0.03913915777
0.03422631053
0.02939017851
0.02459763975
0.01979066982
0.01485952449
0.009667950937
0.004285919253
0.0003036430158
0.1737593032
0.1719816637
0.1695710925
0.1677404397
0.167035484
0.1672774528
0.1677546789
0.1674230737
0.1650864424
0.1595915894
0.1544187209
0.1489303622
0.1445102384
0.1405137207
0.1364174073
0.13203999
0.1273336206
0.1223307394
0.117058609
0.1115802799
0.1059283111
0.1001565445
0.09430556293
0.08840181497
0.08248630617
0.07658452437
0.07071993889
0.06491431844
0.05918303152
0.05354041455
0.0479965827
0.04255625753
0.03721448717
0.03195612977
0.02674517162
0.02151852235
0.01615685638
0.01051202512
0.004660107519
0.0003301530004
0.1880397996
0.1861160639
0.1835073787
0.1815262728
0.1807633799
0.1810252351
0.1815416822
0.1811828239
0.1786541553
0.172707705
0.1671097018
0.1611702795
0.1563868856
0.152061912
0.1476289411
0.1428917635
0.1377985987
0.1323845533
0.1266791302
0.1207505617
0.114634083
0.1083879609
0.1020561134
0.09566716294
0.08926548504
0.08287866233
0.07653209288
0.0702493346
0.06404701899
0.05794066067
0.05194120617
0.04605376512
0.04027297865
0.0345824605
0.0289432371
0.02328703301
0.01748471581
0.01137596123
0.005043100817
0.000357286792
0.2026563307
0.200583061
0.1977716
0.1956365006
0.1948143073
0.1950965167
0.1956531078
0.195266355
0.1925411304
0.1861324563
0.1800993143
0.1736982145
0.1685430024
0.1638818441
0.1591042937
0.1539988903
0.1485098285
0.1426749436
0.136526032
0.1301366297
0.1235447107
0.1168130709
0.1099890423
0.103103472
0.0962041849
0.08932090776
0.08248101281
0.07570988914
0.069025461
0.06244444907
0.05597865065
0.04963357264
0.04340343959
0.03727059146
0.03119302531
0.02509715854
0.01884382113
0.01226022664
0.005435106339
0.0003850590694
0.2176168036
0.2153904813
0.2123714729
0.2100787564
0.2091958672
0.2094989098
0.2100965896
0.2096812859
0.2067548801
0.1998731056
0.1933945857
0.1865209446
0.1809851651
0.1759799112
0.170849673
0.1653673791
0.1594731044
0.1532074773
0.1466046414
0.1397435614
0.1326650145
0.1254364323
0.118108641
0.1107147649
0.1033061595
0.09591474579
0.08856991692
0.08129893611
0.07412105086
0.06705421618
0.06011110033
0.05329761666
0.04660756343
0.0400219769
0.03349575333
0.02694987816
0.02023490758
0.01316529972
0.005836336152
0.0004134848571
0.2329293118
0.2305463353
0.2273148957
0.2248608533
0.22391584
0.2242402061
0.2248799413
0.2244354151
0.2213030939
0.2139370865
0.2070027085
0.1996454067
0.1937201045
0.1883626583
0.1828714332
0.1770033802
0.1706943574
0.1639878523
0.1569204108
0.149576554
0.1419999284
0.1342627102
0.1264193023
0.1185051594
0.1105752508
0.1026637436
0.09480209916
0.08701949904
0.07933654514
0.07177245582
0.0643407908
0.05704787944
0.04988708359
0.04283810524
0.0358526669
0.02884619418
0.02165872772
0.01409167009
0.006247007311
0.0004425795323
0.248602139
0.2460588221
0.2426099526
0.2399907881
0.2389821889
0.2393283802
0.2400111604
0.2395367239
0.2361936422
0.2283320073
0.2209310443
0.2130787009
0.2067547102
0.201036784
0.1951760777
0.1889131882
0.182179658
0.1750219006
0.1674789209
0.159640927
0.1515545023
0.1432966795
0.1349255219
0.1264788698
0.1180153912
0.1095715523
0.101180931
0.09287467271
0.08467476539
0.07660172052
0.06867001019
0.06088638968
0.05324377425
0.04572049998
0.03826504106
0.03078713245
0.02311605181
0.01503983891
0.006667341982
0.0004723588353
0.2646437638
0.2619363335
0.2582649178
0.2554767456
0.2544030642
0.2547715944
0.2554984326
0.2549933819
0.2514345802
0.2430656552
0.2351871281
0.2268280941
0.2200960334
0.2140091449
0.207770263
0.2011032462
0.1939352195
0.1863155913
0.1782858834
0.169942125
0.1613339051
0.1525432274
0.1436319015
0.1346402098
0.1256306058
0.1166419087
0.1077098633
0.09886762456
0.09013859935
0.08154462274
0.07310110054
0.06481522404
0.05667945122
0.04867072038
0.04073418083
0.03277374299
0.02460766822
0.01601031911
0.007097567562
0.0005028388756
0.2810628644
0.278187459
0.2742882603
0.2713271036
0.2701868086
0.2705782032
0.271350136
0.2708137509
0.267034153
0.2581460009
0.2497786721
0.2409010246
0.2337512916
0.2272867587
0.2206608023
0.2135801486
0.2059674013
0.197875034
0.1893471449
0.1804857207
0.1713434273
0.1620073559
0.1525431511
0.1429935944
0.1334250141
0.1238786378
0.114392428
0.1050015967
0.09573100294
0.08660383646
0.07763645896
0.06883650785
0.0601959732
0.05169036249
0.043261422
0.03480710049
0.02613438389
0.0170036357
0.007537916783
0.0005340361421
0.2978683232
0.29482099
0.2906886484
0.2875504367
0.2863419605
0.2867567575
0.2875748463
0.2870063893
0.2830007997
0.2735812025
0.26471357
0.2553051056
0.2477278719
0.2408768083
0.2338546692
0.2263506453
0.2182827126
0.2097064822
0.2006686891
0.191277418
0.1815884837
0.1716941851
0.1616640916
0.1515435427
0.1414028328
0.1312856546
0.1212322403
0.1112799075
0.1014550015
0.09178209866
0.08227853899
0.07295241658
0.06379524252
0.05478105985
0.04584813175
0.03688830498
0.02769702473
0.01802032604
0.007988627873
0.0005659675123
0.3150692317
0.3118459251
0.3074749545
0.3041555214
0.3028772598
0.3033160099
0.3041813406
0.3035800571
0.299343158
0.2893796103
0.2799999013
0.2700481293
0.2620333355
0.2547866456
0.2473590013
0.239421645
0.2308878158
0.2218163366
0.2122566408
0.2023230549
0.1920746169
0.1816089552
0.170999657
0.1602946801
0.1495683778
0.138866966
0.1282330004
0.1177059533
0.1073136916
0.09708221066
0.08702985196
0.07716517686
0.06747920636
0.05794448451
0.04849570939
0.03901848232
0.02929643612
0.01906094014
0.008449944658
0.0005986502607
0.3326748951
0.3292714743
0.3246562595
0.3211513407
0.3198016515
0.3202649184
0.3211786026
0.3205437202
0.3160700686
0.3055497707
0.2956459357
0.2851380714
0.2766754212
0.2690237956
0.2611811042
0.2528002185
0.24378953
0.2342111482
0.2241172689
0.213628607
0.2028074994
0.1917570301
0.1805548979
0.1692517406
0.1579260663
0.1466266735
0.1353984956
0.1242832106
0.1133102426
0.1025070397
0.09189296813
0.08147706769
0.07124985761
0.06118234778
0.05120558725
0.04119878495
0.03093348328
0.02012604096
0.008922116695
0.0006321020673
0.3506948377
0.3471070644
0.3422418581
0.338547089
0.3371242913
0.337612652
0.3385758276
0.3379065556
0.3331905805
0.3221004315
0.3116601371
0.3005830952
0.2916620501
0.2835959603
0.2753284551
0.2664936036
0.2569948346
0.2468976223
0.2362569896
0.2252001902
0.2137929376
0.2021438994
0.1903349834
0.1784195699
0.1664804198
0.1545689747
0.1427326021
0.1310152375
0.1194478986
0.1080595205
0.09687051838
0.08589042169
0.07510923616
0.06449640128
0.05397923132
0.04343039227
0.03260905184
0.02121620469
0.009405399423
0.0006663410289
0.369138808
0.3653623442
0.3602412637
0.356352177
0.3548545507
0.3553685955
0.356382427
0.3556779563
0.3507139556
0.3390405462
0.3280511691
0.3163915563
0.3070013298
0.298511023
0.2898087078
0.2805092079
0.2705108736
0.2598826222
0.2486823704
0.2370440647
0.2250368744
0.2127751825
0.2003452043
0.1878031276
0.175236066
0.1626981665
0.1502392876
0.1379056758
0.12572998
0.1137426569
0.1019651955
0.09040762646
0.0790594298
0.06788843783
0.05681814202
0.04571451165
0.03432404823
0.02233202108
0.009900054289
0.0007013856684
0.388016784
0.3840471895
0.3786642139
0.3745762369
0.3730020212
0.3735423545
0.374608034
0.3738675362
0.3686496736
0.3563792792
0.3448278989
0.3325720066
0.3227015584
0.3137770523
0.3046296956
0.2948546139
0.2843449588
0.2731731723
0.2614001331
0.2491666376
0.2365453925
0.2236566305
0.2105909759
0.1974074901
0.1841977415
0.1710186464
0.1579226132
0.1449582532
0.1321598851
0.1195595233
0.1071797556
0.09503112564
0.08310257553
0.07136029246
0.05972385525
0.04805237866
0.03607940026
0.02347409378
0.01040634889
0.000737254944
0.4073389775
0.4031717083
0.3975206749
0.3932291277
0.39157652
0.3921437609
0.3932625082
0.3924851354
0.3870074373
0.3741260103
0.3619994023
0.3491331995
0.3387712295
0.3294023069
0.3197994364
0.3095375819
0.2985045742
0.2867764628
0.2744171578
0.261574467
0.2483247179
0.2347941301
0.221077841
0.2072378529
0.1933702944
0.1795349158
0.1657867353
0.1521767849
0.1387410925
0.1255132665
0.1125170196
0.09976342052
0.08724086065
0.07491384342
0.06269794287
0.05044525807
0.03787605751
0.02464304061
0.01092455712
0.0007739682604
0.4271158426
0.4227462465
0.4168208475
0.41232094
0.4105880963
0.4111828771
0.412355941
0.4115408262
0.4057971779
0.3922903402
0.3795749687
0.3660840941
0.3552190363
0.3453952397
0.3353261367
0.324566055
0.3129973798
0.3006998525
0.2877404864
0.2742742654
0.2603812228
0.2461937064
0.2318114727
0.2172995343
0.2027586868
0.1882515816
0.1738359081
0.1595651761
0.1454771624
0.1316071074
0.1179798749
0.1046070711
0.09147652382
0.07855101301
0.0657420138
0.0528944444
0.03971499193
0.02583949396
0.01145495932
0.0008115454788
0.4473580772
0.4427813933
0.4365751733
0.4318620021
0.4300470338
0.4306700031
0.4318986621
0.4310449163
0.4250290606
0.4108820951
0.3975641062
0.3834338604
0.3720538767
0.3617645025
0.3512181961
0.3399481635
0.3278312159
0.3149508738
0.3013773264
0.2872729029
0.2727214295
0.2578615264
0.2427976777
0.2275979773
0.2123679977
0.1971733595
0.1820744863
0.1671274236
0.1523717389
0.1378443425
0.1235712767
0.1095646978
0.09581185646
0.08227376896
0.06885771479
0.05540126255
0.04159719837
0.02706410107
0.01199784242
0.0008500069272
0.4680766322
0.4632879881
0.4567943382
0.4518628854
0.4499638604
0.4506156812
0.4519012434
0.4510079579
0.4447134891
0.4299113332
0.4159765463
0.4011918847
0.3892848581
0.3785189509
0.3674842119
0.3556922289
0.3430141074
0.3295372362
0.3153350554
0.3005774118
0.285352014
0.2698039021
0.2540423994
0.2381387532
0.2222034256
0.206305076
0.1905069266
0.1748676186
0.1594285519
0.1442283462
0.12929425
0.1146389824
0.1002492039
0.08608412515
0.07204673146
0.05796706874
0.04352369502
0.02831752445
0.01255350012
0.0008893734129
0.489282716
0.4842771236
0.4774892808
0.4723344102
0.4703493502
0.4710307014
0.4723745055
0.47144075
0.4648611121
0.4493883485
0.4348222503
0.4193677734
0.4069213026
0.3956676484
0.3841329839
0.3718067681
0.3585542678
0.3444668307
0.3296212239
0.3141949893
0.298279809
0.2820272942
0.2655517209
0.2489275644
0.232270291
0.2156516711
0.1991377908
0.1827899483
0.1666514189
0.150762572
0.1351518906
0.1198326702
0.1047909667
0.08998414292
0.07531078896
0.06059325093
0.04549552415
0.02960044215
0.01312223301
0.0009296662326
0.5109878009
0.5057601551
0.4986711966
0.4932876502
0.4912145311
0.491926108
0.4933295245
0.492354347
0.4854828294
0.4693236783
0.4541114124
0.4379713595
0.4249727501
0.4132198724
0.4011735182
0.3883004987
0.374460104
0.3597477337
0.3442435605
0.3281330023
0.3115118082
0.2945383152
0.2773318685
0.2599702473
0.2425740401
0.2252182011
0.2079717481
0.1908986984
0.1740442473
0.1574505548
0.1411473676
0.1251485707
0.1094396018
0.09397593209
0.07865165304
0.0632812299
0.04751375241
0.03091354822
0.01370434877
0.0009709071829
0.5332036286
0.5277487042
0.5203515447
0.5147339419
0.5125706914
0.513313205
0.5147776367
0.5137600618
0.5065897967
0.4897281063
0.4738544688
0.4570127069
0.4434489667
0.4311851185
0.4186150338
0.4051823441
0.390740221
0.375388212
0.3592099757
0.342398991
0.32505517
0.3073437332
0.2893892149
0.2712727758
0.253120247
0.2350098414
0.2170135775
0.1991982558
0.1816110365
0.1642959127
0.1472839242
0.1305895599
0.1141976241
0.09806165214
0.08207113107
0.06603245973
0.04957947164
0.03225755302
0.01430016231
0.001013118575
0.5559422171
0.5502546666
0.5425420536
0.5366848869
0.5344293839
0.5352035621
0.536730445
0.5356694754
0.5281934326
0.5106126715
0.4940620992
0.4765021163
0.4623599476
0.4495731048
0.4364669661
0.4224614364
0.4074034254
0.3913967267
0.3745285659
0.357000673
0.3389172208
0.3204504759
0.3017302831
0.2828412643
0.2639146168
0.2450318889
0.2262681703
0.2076931103
0.18935588
0.1713023489
0.1535648803
0.136158581
0.1190676075
0.1022435134
0.08557107292
0.06884842886
0.05169379938
0.03363318363
0.01490999595
0.001056323245
0.5792158682
0.5732902172
0.5652547275
0.5591523599
0.5568024336
0.5576090215
0.5591998249
0.5580944398
0.550305424
0.5319886721
0.5147452358
0.4964501321
0.4817159235
0.4683937791
0.4547389726
0.4401471233
0.4244587324
0.4077819381
0.3902076183
0.3719459475
0.3531054599
0.3338656336
0.3143617493
0.2946819712
0.2749629893
0.2552897655
0.2357405332
0.2163878573
0.1972829676
0.1784736536
0.1599936337
0.1418586469
0.1240521865
0.1065237781
0.08915337199
0.0717306606
0.05385787939
0.03504118423
0.01553417959
0.001100544565
0.6030371719
0.5968678178
0.5885018537
0.5821485152
0.5797019441
0.5805417044
0.5821979326
0.5810470864
0.5729377332
0.5538676715
0.5359150675
0.5168675446
0.5015273649
0.4876573233
0.4734409379
0.4582489724
0.4419153678
0.4245527104
0.4062556146
0.3872428995
0.3676275627
0.3475964636
0.3272904467
0.3068013021
0.2862713412
0.2657890204
0.2454357904
0.2252872006
0.2053965877
0.1858137065
0.1665736622
0.1476928412
0.1291540578
0.1109047617
0.09281996618
0.07468071418
0.0560728824
0.03648231652
0.01617305092
0.001145806457
0.6274190151
0.6210002231
0.6122960089
0.6056857937
0.6031403035
0.6040140168
0.6057372092
0.6045398321
0.5961026039
0.5762615064
0.5575830474
0.5377653996
0.52180499
0.5073741585
0.4925829799
0.4767767767
0.459782776
0.4417181162
0.4226812368
0.4028998045
0.3824913856
0.3616503941
0.3405233695
0.3192058131
0.2978457902
0.2765353334
0.255359187
0.2343959546
0.2137011295
0.1933264784
0.1733085256
0.1536643201
0.1343759813
0.1153888344
0.09657283913
0.07770018554
0.05834000671
0.03795736013
0.01682695554
0.001192133408
0.6523745881
0.6457004891
0.6366500647
0.6297769286
0.6271301915
0.6280386568
0.6298303892
0.6285853863
0.6198125676
0.5991822909
0.5797608967
0.5591550027
0.5425597681
0.5275549508
0.5121754534
0.4957405587
0.4780706226
0.4592874413
0.4394933708
0.4189251325
0.3977049691
0.376035028
0.3540676766
0.331902215
0.3096925978
0.2875345183
0.2655160911
0.2437190468
0.2222010857
0.2010160334
0.1802018671
0.1597763139
0.1397207821
0.119978422
0.100414021
0.08079070814
0.06066047879
0.03946711302
0.01749624721
0.00123955048
0.6779173913
0.670981977
0.6615771965
0.6544349522
0.6516845858
0.6526286208
0.6544905061
0.6531967568
0.6440804508
0.6226424252
0.6024606135
0.5810479251
0.5638029275
0.5482106178
0.5322289579
0.5151505785
0.4967888008
0.4772701904
0.4567011111
0.4353275528
0.4132765441
0.3907581471
0.3679306951
0.3448973762
0.3218181728
0.2987925251
0.2759119977
0.2532615209
0.2309010545
0.2088865315
0.187257416
0.1660321292
0.1451913514
0.1246760072
0.1043455898
0.08395395391
0.06303555393
0.04101239194
0.01818128799
0.001288083323
0.7040612424
0.6968583648
0.6870908892
0.6796732046
0.6768167706
0.6777972119
0.6797309007
0.6783872582
0.6689193822
0.6466546
0.6256944779
0.6034560102
0.5855459601
0.5693523336
0.552754342
0.5350173354
0.5159474368
0.4956760922
0.4743137674
0.4521159388
0.429214534
0.4058277159
0.3821199245
0.3581983268
0.3342290751
0.3103154444
0.2865525305
0.2630285393
0.2398057425
0.2169422305
0.1944789892
0.1724351503
0.1507906489
0.1294841313
0.1083696724
0.08719163409
0.065466517
0.04259403284
0.01888244848
0.001337758194
0.7308202856
0.72334365
0.7132049452
0.7055053386
0.7025403409
0.7035580461
0.7055652275
0.7041705178
0.6943427988
0.6712318063
0.6494750592
0.6263913806
0.6078006285
0.5909915357
0.5737627094
0.5553515777
0.5355568954
0.5145151039
0.4923408674
0.4692993728
0.4455275609
0.4212518874
0.396643041
0.3718122625
0.3469320186
0.3221095097
0.297443446
0.2730253855
0.2489199669
0.2251874883
0.2018704934
0.1789888409
0.1565217035
0.1344053956
0.1124884458
0.09050550019
0.06795468315
0.04421289137
0.01960010799
0.001388601966
0.7582089961
0.7504521612
0.7399334913
0.7319453292
0.7288692134
0.7299250585
0.7320074626
0.7305604838
0.7203644549
0.6963873388
0.6738152214
0.6498664435
0.6305789721
0.6131399305
0.5952654249
0.5761643055
0.5556277841
0.5337974164
0.5107921636
0.4868871503
0.4622244502
0.4370390053
0.4115079012
0.385746548
0.3599338753
0.3341811015
0.3085906358
0.2832574677
0.2582486583
0.2336267654
0.2094359272
0.1856967466
0.1623876157
0.1394424622
0.1167041381
0.0938973449
0.07050139838
0.04586984331
0.02033465477
0.001440642143
0.7862421911
0.7781985633
0.7672909874
0.7590074798
0.755817631
0.7569125139
0.7590719104
0.7575714328
0.7469984269
0.7221348072
0.6987281328
0.6738938985
0.6538933131
0.6358094993
0.6172741213
0.5974667779
0.5761709614
0.5535334617
0.5296776378
0.5048887864
0.4793142346
0.4531976103
0.4267225469
0.4000087212
0.373241679
0.3465367501
0.3200001304
0.2937303213
0.2677968634
0.2422646274
0.2171793834
0.1925624962
0.1683915588
0.1445980562
0.12101903
0.09736900323
0.0731080404
0.04756578503
0.02108648618
0.001493906879
0.8149350358
0.8065978666
0.7952922337
0.7867064306
0.7834001727
0.7845350118
0.7867732127
0.7852179771
0.7742591234
0.7484881396
0.7242272701
0.6984867444
0.6777562646
0.6590125068
0.639800705
0.6192705195
0.597197541
0.5737339163
0.5490075062
0.5233140194
0.496806159
0.4697364439
0.4422952088
0.4146064982
0.3868626289
0.3591831398
0.3316781021
0.3044496118
0.2775697475
0.2511057471
0.2251050511
0.1995898039
0.1745367809
0.1498749665
0.1254354557
0.1009223532
0.07577601938
0.04930163396
0.02185600896
0.001548424989
0.8443030523
0.8356654346
0.8239523776
0.8150571659
0.8116317594
0.8128074951
0.8151263548
0.8135150726
0.8021612921
0.7754615929
0.7503264285
0.7236582847
0.7021807359
0.6827615041
0.6628573623
0.6415873252
0.6187188973
0.594409708
0.5687922264
0.5421728167
0.514709686
0.4866644527
0.4582343112
0.4295477758
0.4008040938
0.372127112
0.3436308683
0.3154211382
0.2875725975
0.2601549074
0.2332172178
0.2067824712
0.1808266063
0.155276048
0.1299558044
0.1045593172
0.07850677868
0.05107832921
0.02264363939
0.001604225965
0.8743621283
0.8654169921
0.8532869242
0.8440750232
0.8405276645
0.8417452588
0.8441466751
0.8424780275
0.8307200272
0.8030697589
0.7770397264
0.7494221375
0.7271799396
0.7070693402
0.6864565661
0.6644292683
0.6407466731
0.6155720226
0.589042501
0.5614753809
0.5330345012
0.503990795
0.4745484773
0.4448406368
0.4150736153
0.385375669
0.3558648954
0.3266508358
0.2978108248
0.2694170036
0.2415202721
0.2141443895
0.1872644376
0.1608042224
0.1345825216
0.1082818626
0.08130179548
0.05289683192
0.02344980357
0.001661339996
0.9051285251
0.8958686343
0.8833117424
0.8737756999
0.8701035197
0.8713639579
0.8738498731
0.8721225106
0.8599507785
0.8313275734
0.8043816161
0.7757922399
0.7527674004
0.7319491639
0.7106110833
0.6878087053
0.663292785
0.6372323077
0.6097692854
0.5812321543
0.5517905183
0.5217248441
0.4912465318
0.4604933545
0.4296789137
0.398935978
0.3683868016
0.3381447797
0.3082899681
0.2788970465
0.2500187057
0.2216795411
0.1938537578
0.1664624804
0.1393181101
0.1120920033
0.08416258189
0.05475812583
0.02427493762
0.001719797978
0.9366188868
0.9270368343
0.9140430756
0.9041752643
0.9003753247
0.901679615
0.9042520177
0.9024645585
0.8898693593
0.8602503234
0.8323668878
0.8027828575
0.7789569602
0.7574144357
0.7353339809
0.7117382846
0.6863694301
0.6594022817
0.6309837923
0.6014538245
0.5709878835
0.5398761934
0.5083375089
0.4765143963
0.4446278891
0.4128153752
0.3812033611
0.3499091878
0.3190156963
0.2886001644
0.2587171162
0.2293920026
0.2005981314
0.172253883
0.1441651319
0.1159918005
0.08709068552
0.0566632179
0.02511948791
0.001779631535
0.9688502485
0.9589384545
0.9454975483
0.935290161
0.9313594565
0.9327086306
0.9353695561
0.9335205858
0.9204919548
0.8898536548
0.8610106817
0.8304085922
0.8057627867
0.7834789311
0.7606386336
0.7362309515
0.7099890921
0.6820939375
0.652697498
0.6221513317
0.5906369826
0.5584546624
0.5258306543
0.49291243
0.4599286297
0.4270213685
0.3943215071
0.3619504245
0.3299938118
0.2985316066
0.2676202091
0.2372859462
0.207501207
0.1781815632
0.149126209
0.119983364
0.09008769043
0.05861313876
0.02598391133
0.001840873038
0.9999999998
0.9897695294
0.9758964811
0.9653609139
0.961303832
0.9626963836
0.9654428613
0.9635344443
0.9500869266
0.9184635667
0.8886932558
0.8571072709
0.8316690716
0.8086687622
0.7850941203
0.7599017006
0.7328161323
0.7040241138
0.6736825417
0.6421542777
0.6096267028
0.5764096806
0.5427367697
0.5087601831
0.4747159124
0.4407506415
0.4069994385
0.3735875849
0.3406035271
0.3081297725
0.2762245347
0.2449149872
0.2141726312
0.1839103241
0.1539208038
0.1238409797
0.09298412277
0.06049762475
0.0268193267
0.001900059417
0.9999999998
0.9897695294
0.9758964811
0.9653609139
0.961303832
0.9626963836
0.9654428613
0.9635344443
0.9500869266
0.9184635667
0.8886932558
0.8571072709
0.8316690716
0.8086687622
0.7850941203
0.7599017006
0.7328161323
0.7040241138
0.6736825417
0.6421542777
0.6096267028
0.5764096806
0.5427367697
0.5087601831
0.4747159124
0.4407506415
0.4069994385
0.3735875849
0.3406035271
0.3081297725
0.2762245347
0.2449149872
0.2141726312
0.1839103241
0.1539208038
0.1238409797
0.09298412277
0.06049762475
0.0268193267
0.001900059417
0.9999999998
0.9897695294
0.9758964811
0.9653609139
0.961303832
0.9626963836
0.9654428613
0.9635344443
0.9500869266
0.9184635667
0.8886932558
0.8571072709
0.8316690716
0.8086687622
0.7850941203
0.7599017006
0.7328161323
0.7040241138
0.6736825417
0.6421542777
0.6096267028
0.5764096806
0.5427367697
0.5087601831
0.4747159124
0.4407506415
0.4069994385
0.3735875849
0.3406035271
0.3081297725
0.2762245347
0.2449149872
0.2141726312
0.1839103241
0.1539208038
0.1238409797
0.09298412277
0.06049762475
0.0268193267
0.001900059417
0.9999999998
0.9897695294
0.9758964811
0.9653609139
0.961303832
0.9626963836
0.9654428613
0.9635344443
0.9500869266
0.9184635667
0.8886932558
0.8571072709
0.8316690716
0.8086687622
0.7850941203
0.7599017006
0.7328161323
0.7040241138
0.6736825417