/*--------------------------------*- C++ -*----------------------------------*\
| =========                 |                                                 |
| \\      /  F ield         | foam-extend: Open Source CFD                    |
|  \\    /   O peration     | Version:     3.2                                |
|   \\  /    A nd           | Web:         http://www.foam-extend.org         |
|    \\/     M anipulation  | For copyright notice see file Copyright         |
\*---------------------------------------------------------------------------*/
FoamFile
{
    version     2.0;
    format      ascii;
    class       volScalarField;
    location    "0.12";
    object      p;
}
// * * * * * * * * * * * * * * * * * * * * * * * * * * * * * * * * * * * * * //

dimensions      [0 2 -2 0 0 0 0];

internalField   nonuniform List<scalar> 
18000
(
82.34002106
82.15885493
81.68660137
80.98691346
80.12882309
79.14916601
78.07884344
76.94284033
75.76103232
74.54933445
73.32059077
72.08522861
70.8517661
69.62720889
68.41735116
67.22699909
66.06013485
64.9200381
63.80937808
62.73028649
61.68441752
60.67300014
59.6968859
58.75659434
57.85235625
56.98415418
56.15175938
55.35476546
54.59261944
53.86465075
53.17009766
52.50813075
51.87787319
51.27841706
50.7088321
50.16815887
49.65537288
49.16929908
48.70835694
48.26882718
82.13053682
81.96480423
81.49988074
80.80309294
79.94580124
78.96523815
77.8930473
76.75435507
75.56916571
74.35348355
73.12021311
71.87982467
70.64086904
69.41037834
68.19416955
66.99706946
65.82307954
64.67549802
63.55701222
62.46977142
61.41544663
60.39528248
59.41014504
58.46056732
57.54679265
56.66881481
55.8264145
55.01919256
54.24660083
53.50797093
52.80254041
52.12947731
51.48790657
50.87694451
50.29575254
49.74363152
49.2201969
48.72568765
48.26150008
47.82783007
82.03596801
81.88219898
81.42452531
80.73245996
79.87901846
78.90186482
77.83325701
76.69834235
75.51719309
74.3058483
73.07723418
71.84183537
70.6082135
69.38340975
68.17324909
66.98256563
65.81536762
64.67495952
63.56403419
62.48474533
61.43876694
60.4273451
59.45134611
58.51130231
57.60745559
56.7397972
55.90810392
55.11197119
54.35084376
53.62404296
52.93078957
52.27022142
51.64140379
51.04332578
50.47486841
49.9347206
49.42121017
48.93195421
48.46369401
48.00466235
81.86756349
81.72676651
81.27795453
80.59175078
79.74232056
78.76777975
77.70109704
76.56750888
75.38721407
74.1763182
72.94779068
71.71214198
70.47794883
69.25226095
68.04090763
66.84872489
65.67972131
64.53720045
63.42385286
62.34182796
61.29279294
60.27798439
59.29825654
58.35412707
57.44582015
56.57330559
55.73633452
54.93447231
54.16712861
53.43358348
52.73300986
52.06449418
51.4270576
50.81968045
50.24133886
49.69106454
49.1680737
48.67178473
48.20327963
47.75433955
81.68165763
81.5533785
81.11419155
80.43505838
79.5908124
78.620125
77.55667243
76.42581545
75.24791022
74.03914878
72.81256471
71.57871486
70.34621261
69.12213934
67.91235416
66.7217229
65.55428499
64.41337605
63.30171944
62.22149733
61.17440904
60.16172258
59.18432305
58.24275849
57.33728256
56.46789343
55.63436968
54.83630366
54.07313121
53.34415678
52.64857413
51.98548283
51.353898
50.75274756
50.180856
49.63689341
49.11938775
48.62617671
48.15727265
47.69461344
81.45488278
81.33746443
80.9075632
80.23575863
79.39692757
78.43021452
77.36992345
76.2415457
75.06559817
73.85835729
72.63291762
71.3998759
70.16787293
68.94401025
67.73416339
66.54321304
65.37521292
64.23351222
63.12084628
62.03940653
60.99089785
59.97658983
58.99736492
58.05376383
57.14602738
56.27413495
55.4378405
54.63670579
53.87012976
53.13737388
52.43758569
51.769822
51.13307257
50.52628481
49.9484046
49.39839075
48.87544056
48.37816594
47.90947897
47.44990728
81.1945403
81.08646023
80.66560067
80.00154059
79.16868155
78.2065567
77.15001276
76.02468075
74.85124538
73.646076
72.42233823
71.1906788
69.95977661
68.73676516
67.52755
66.33704253
65.16932902
64.02779286
62.91520431
61.83378915
60.78528548
59.77099479
58.79183022
57.84836167
56.94085756
56.06932384
55.23354108
54.43309837
53.66742295
52.93580596
52.23742598
51.57136918
50.93664367
50.33218323
49.75686077
49.20942463
48.68877354
48.19255196
47.72399449
47.25816475
80.8969506
80.79645637
80.38400086
79.72770234
78.90102835
77.94376747
76.8911978
75.76908012
74.59825791
73.39519023
72.17311177
70.94271682
69.71271924
68.49028093
67.28133378
66.0908162
64.92284305
63.78082716
62.66756756
61.58531641
60.53583466
59.52044269
58.5400679
57.59528907
56.68637761
55.81333692
54.97593978
54.1737623
53.40621347
52.67256224
51.97196412
51.30348607
50.66613067
50.0588551
49.48061617
48.93031224
48.40720481
47.90913162
47.44076114
46.9759067
80.56232918
80.46781156
80.06310623
79.41452347
78.59423723
77.64215379
76.59386928
75.47525928
74.30731406
73.10658038
71.88636252
70.65740391
69.42845582
68.20671214
66.9981364
65.80770124
64.63955916
63.49716311
62.38335275
61.30041965
60.25016194
59.23393445
58.25269582
57.30705249
56.39730031
55.52346501
54.68534079
53.88252487
53.11444787
52.38040217
51.67956887
51.01104021
50.37383802
49.76692127
49.18922168
48.63954152
48.1170433
47.61912918
47.15076123
46.68384646
80.18938076
80.09932561
79.70161961
79.06054216
78.24670216
77.29998235
76.25618034
75.14126221
73.9763456
72.77805787
71.55976872
70.33226792
69.10434212
67.88321615
66.67488545
65.48435853
64.31582819
63.17279044
62.05812821
60.97417433
59.92276474
58.90528768
57.92272985
56.97571977
56.06456964
55.18931661
54.34976181
53.54550504
52.77597576
52.04046269
51.33814246
50.66810419
50.02937248
49.42092074
48.84172063
48.29063419
47.76696936
47.26817209
46.79967987
46.33319567
79.77722004
79.69028041
79.29881741
78.66495384
77.85754632
76.91632115
75.87716528
74.76610595
73.60436521
72.40864229
71.19236698
69.96637241
68.73947904
67.5189429
66.31079383
65.12008098
63.95104406
62.80722992
61.69157319
60.60645659
59.55376257
58.5349213
57.55095593
56.60252574
55.6899687
54.81334407
53.97247224
53.16697011
52.39628319
51.6597166
50.95646373
50.28562948
49.64625089
49.03730564
48.45775823
47.90643562
47.38261028
46.88358994
46.41483485
45.94791152
79.32475325
79.23974462
78.85376638
78.22674515
77.4256709
76.48999286
75.4555817
74.34849206
73.19002405
71.99693711
70.78271355
69.5582248
68.3323219
67.112291
65.90419789
64.71313634
63.54339868
62.3985892
61.28170081
60.19517225
59.14093753
58.12047238
57.13483844
56.18472616
55.27049832
54.39223354
53.54976671
52.74272485
51.9705602
51.23258226
50.52798722
49.85588172
49.21530525
48.60524087
48.02466573
47.47242514
46.94782956
46.44821653
45.97906232
45.5124125
78.83091648
78.74681973
78.3655903
77.74498723
76.95008104
76.01993902
74.9903192
73.88726751
72.73213382
71.54172437
70.32956484
69.10655885
67.88158414
66.66195606
65.45377861
64.26219548
63.091559
61.94553928
60.82719606
59.73903211
58.68304011
57.66074728
56.67325853
55.72129956
54.80526161
53.92524609
53.08110592
52.27248222
51.4988388
50.75949517
50.05365611
49.38043499
48.73887555
48.12796131
47.54666473
46.99381842
46.46871025
45.96866323
45.49900895
45.03238113
78.29463149
78.21058171
77.83339571
77.21874746
76.42978498
75.50510599
74.48027006
73.38127717
72.22949766
71.04176945
69.83165099
68.61007064
67.38592824
66.16656711
64.95813217
63.76582304
62.59406022
61.44658861
60.32654345
59.23649927
58.17851351
57.15416922
56.16461722
55.21061975
54.29259648
53.41067045
52.56471013
51.75436725
50.97911252
50.23826961
49.53104508
48.85655203
48.21383261
47.60186866
47.01963155
46.4659557
45.94012432
45.43949729
44.96923932
44.50277977
77.71484339
77.6301166
77.25630685
76.64712567
75.86383411
74.94449039
73.92438109
72.82942339
71.68097862
70.49590012
69.28776739
68.06752519
66.84409032
65.6248332
64.41594326
63.22268341
62.04955184
60.90037831
59.77838309
58.68622039
57.62601858
56.59942059
55.60762559
54.65143354
53.73129282
52.84734755
51.99948092
51.18735424
50.41044428
49.66807822
48.95946382
48.28371326
47.63986581
47.0268986
46.4437756
45.88932362
45.36280275
44.86160121
44.3906626
43.92427371
77.0905286
77.0045258
76.6334671
76.02925211
75.25131909
74.33713408
73.32164759
72.23065857
71.08549046
69.90299504
68.69676032
67.47773829
66.25485739
65.03551474
63.82594909
62.63149536
61.45674017
60.30560909
59.18141706
58.08690563
57.02427917
55.99524334
55.00104653
54.04252588
53.12015683
52.23410213
51.38425649
50.57028729
49.79167346
49.04774143
48.33769583
47.66064369
47.01561784
46.40158852
45.81751173
45.26220951
44.7349216
44.23307911
43.76138874
43.29506752
76.42070732
76.33293815
75.96404925
75.36429623
74.59137858
73.68213371
72.67112422
71.58399773
70.4420121
69.26200036
68.05754591
66.83959834
65.6170925
64.3974528
63.18697357
61.99107206
60.81443537
59.66109645
58.53447456
57.43740553
56.37217378
55.34054911
54.34382864
53.38288484
52.4582175
51.57000465
50.71814905
49.90232076
49.1219977
48.37650269
47.66503462
46.98669327
46.34050306
45.7254254
45.14040576
44.58425854
44.05619734
43.55369588
43.08120209
42.6148996
75.70445255
75.61451933
75.24726338
74.65147273
73.88320467
72.97864628
71.97193101
70.88852511
69.74959493
68.57193768
67.36911889
66.15207589
64.92974524
63.70958042
62.49793938
61.30033374
60.1215642
58.96578295
57.83652267
56.73671916
55.66873929
54.63441665
53.63509477
52.67167794
51.74468598
50.85430763
50.0004491
49.18277884
48.40076976
47.65373739
46.94087163
46.26126218
45.61392293
44.99780492
44.41184219
43.85484175
43.32599045
42.8228096
42.34947515
41.88317595
74.94089924
74.84848212
74.48236612
73.89004938
73.12605017
72.22589653
71.22326139
70.14340317
69.00737285
67.83191534
66.63056518
65.41423778
64.19186745
62.97094025
61.75788776
60.55832962
59.37719409
58.21876427
57.08669427
55.98402385
54.91320266
53.87612562
52.87417854
51.90829232
50.97900127
50.08649929
49.23069095
48.41123863
47.62760645
46.87909952
46.16489626
45.48407447
44.83563615
44.21852101
43.63165067
43.07382413
42.54419914
42.04034661
41.56615549
41.09985345
74.12925343
74.03409707
73.66867065
73.07935585
72.31923694
71.42318542
70.42439117
69.34788225
68.21457282
67.04114004
65.84107477
64.62526125
63.40262893
62.18070185
60.96599732
59.76425813
58.58055445
57.4193112
56.28431027
55.17869703
54.10500178
53.06517606
52.06064171
51.0923495
50.16084143
49.26631023
48.40865332
47.58752234
46.80236897
46.05248495
45.33703509
44.65508384
44.00562042
43.38757277
42.79984983
42.24124291
41.71087959
41.20638362
40.73134305
40.26506126
73.26880213
73.17070405
72.80555789
72.21879388
71.46216562
70.56989986
69.57468879
68.50131164
67.37052698
66.19893006
64.99995611
63.78444985
62.56133476
61.33818053
60.12160437
58.91748852
57.73105924
56.56689279
55.42890274
54.32033903
53.24380769
52.20130965
51.1942946
50.22372494
49.29014266
48.39373255
47.53437927
46.71171944
45.92518898
45.17406407
44.45749448
43.77453062
43.12414875
42.50526514
41.9167762
41.35746592
40.82643058
40.32134948
39.84549519
39.37928487
72.3589236
72.2577244
71.89248862
71.30784872
70.55432669
69.66552385
68.67362694
67.60315196
66.47468594
65.30472962
64.10665175
62.89125028
61.66744355
60.44285695
59.22422374
58.01758257
56.82832916
55.66119839
54.52023651
53.40879365
52.3295437
51.28452731
50.27521203
49.30256243
48.36711221
47.46903135
46.60818645
45.7841952
44.99647522
44.24428549
43.52676008
42.84293531
42.19177485
41.57218396
40.98304712
40.42314188
39.89153248
39.38595661
38.90935729
38.44330418
71.39909852
71.2946738
70.92901641
70.34610152
69.59531266
68.7096508
67.72079531
66.65298865
65.52663313
64.35812432
63.16075492
61.94527021
60.72058649
59.49439731
58.27356984
57.06431619
55.87221321
54.70215876
53.55832913
52.44416681
51.36240258
50.31510488
49.30374755
48.32928716
47.39224061
46.49275647
45.63067857
44.80560257
44.01692599
43.2638899
42.5456127
41.86111728
41.2093557
40.58922335
39.9995938
39.43923919
38.9071912
38.4012482
37.92401075
37.45823729
70.38892169
70.28117569
69.91480127
69.33324279
68.58483132
67.70199684
66.71591441
65.6505464
64.52610021
63.35885749
62.16202684
60.94629668
59.72058673
58.49267362
57.26957742
56.05770016
54.86280894
53.68996527
52.54346882
51.42684283
50.34286116
49.29360605
48.28054509
47.30461628
46.36631146
45.46575189
44.60275472
43.77689145
42.98753861
42.23391949
41.51513762
40.83020372
40.17805975
39.55759272
38.9676666
38.40704931
37.87473967
37.36859846
36.89087308
36.42554181
69.32811432
69.2169751
68.84962392
68.26908643
67.52271972
66.64241498
65.65885007
64.59570436
63.47298289
62.30684686
61.11041438
59.89431465
58.66747877
57.43778352
56.21242158
54.99799968
53.80048102
52.62508705
51.47622977
50.35749795
49.27169205
48.22089272
47.20654813
46.22956733
45.29040959
44.38916385
43.52561783
42.69931778
41.90961933
41.15572892
40.4367367
39.75164303
39.09938158
38.47883279
37.88885248
37.32820549
36.79585769
36.28973314
35.81171861
35.34703549
68.21653697
68.10195292
67.73340047
67.15358449
66.40895885
65.53090988
64.54962863
63.48851175
62.3673573
61.20220167
60.00606789
58.78952548
57.56152736
56.33006938
55.10253638
53.88575216
52.68587755
51.50828544
50.35748467
49.23711092
48.14997268
47.09813268
46.08300656
45.10546479
44.16592757
43.26444786
42.40078239
41.57445213
40.78479287
40.03099583
39.31213983
38.62721695
37.97515469
37.35482877
36.76508833
36.20469611
35.67258514
35.16674276
34.68869179
34.2249107
67.05420301
66.93614056
66.56619747
65.98684228
65.24368882
64.36765313
63.38845243
62.32920386
61.20949648
60.04523971
58.84935871
57.63236477
56.40324546
55.17013594
53.94063175
52.72178266
51.51994376
50.34062568
49.18841435
48.06697078
46.97909155
45.9268049
44.91148154
43.93394487
42.99457104
42.09337471
41.23008134
40.40418769
39.61501148
38.86173097
38.14341595
37.45905259
36.80756433
36.18782392
35.59867519
35.03887949
34.5073372
34.00209836
33.52432301
33.06175173
65.84129241
65.71973475
65.34824723
64.76913384
64.02722429
63.15299874
62.17571552
61.11821803
59.99988669
58.83650395
57.64089603
56.42351924
55.19341078
53.95886603
52.72770789
51.5072166
50.3039326
49.12348535
47.97051416
46.84868164
45.7607518
44.70870245
43.69384822
42.71695862
41.77836235
40.87803499
40.01567165
39.19074678
38.40256247
37.65028653
36.93298228
36.24963227
35.59915782
34.98043029
34.39228919
33.83349499
33.30291572
32.79866325
32.32154073
31.86054876
64.57816592
64.45311249
64.07996316
63.50091745
62.76006998
61.8874987
60.91201933
59.85620946
58.7392434
57.57677859
56.38154282
55.16394226
53.93308052
52.69743413
51.46506709
50.24348944
49.03941216
47.85855952
46.70559724
45.58416438
44.49697205
43.44593294
42.4322963
41.45677286
40.51964224
39.62084156
38.76003757
37.93668497
37.15007299
36.39936166
35.68361027
35.00179982
34.35285115
33.73563537
33.14898838
32.59166995
32.06251625
31.55970055
31.08367928
30.62470735
63.26537932
63.136846
62.76195512
62.18285107
61.44293618
60.57191839
59.59818801
58.54406651
57.4285265
56.26710404
55.0724303
53.85486748
52.62360384
51.38731718
50.15432252
48.93235311
47.72826958
46.54786247
45.39579437
44.27565533
43.19008433
42.14091626
41.12932796
40.15596857
39.22106877
38.32452911
37.4659907
36.64489151
35.86051073
35.11200318
34.39842624
33.71876106
33.07192915
32.45680209
31.87221245
31.31691943
30.78972801
30.28887357
29.81447964
29.35805001
61.90369768
61.77171742
61.39504443
60.81580759
60.0767538
59.2072515
58.23528321
57.18292522
56.06895436
54.90879035
53.71497058
52.49782042
51.26663195
50.03030267
48.7974039
47.57587909
46.37271172
45.19372607
44.04355074
42.92570191
41.84272919
40.79637961
39.78775305
38.8174364
37.8856131
36.99215
36.13666582
35.31858489
34.53717902
33.79160003
33.08090506
32.40407654
31.76003738
31.14765987
30.56577329
30.01313637
29.48852396
28.99023601
28.51807957
28.06480592
60.49410929
60.35873316
59.98027851
59.40088945
58.66268899
57.79473434
56.8246179
55.77418261
54.66201654
53.50342908
52.31086731
51.09462754
49.86412527
48.62849363
47.39655989
46.17645806
44.97526218
43.79879485
42.65161948
41.53715526
40.45784799
39.41534964
38.41068121
37.44436866
36.51655116
35.62706544
34.77551125
33.96130217
33.18370494
32.44187001
31.73485541
31.06164546
30.42116461
29.81228582
29.23383487
28.68457047
28.16323878
27.66820913
27.19898991
26.74958472
59.03783922
58.89913771
58.51894486
57.93944265
57.20215676
56.33585906
55.36776906
54.31950853
53.20948457
52.05290279
50.86212373
49.64742252
48.41835756
47.1843101
45.95435682
44.73679587
43.53875489
42.36601758
41.22305196
40.11315979
39.03867187
38.0011411
37.00151012
36.04024692
35.11745035
34.23293089
33.38627263
32.57688089
31.80401908
31.06683736
30.36439513
29.69567865
29.05961367
28.4550735
27.88088022
27.33579337
26.81853246
26.32754346
25.86205413
25.41733146
57.53636205
57.3944265
57.012584
56.43306958
55.69683351
54.83238551
53.86658864
52.82085564
51.71342064
50.55939221
49.37104792
48.15864933
46.93191648
45.70048693
44.47367351
43.25990571
42.06632397
40.89863548
39.76118481
38.65713936
37.58870742
36.55734179
35.56390947
34.60882478
33.69215065
32.81367521
31.97296975
31.16943331
30.40232699
29.67080109
28.97391633
28.31066059
27.67996032
27.08068889
26.51166455
25.97164917
25.45933812
24.97326353
24.51238947
24.07326106
55.99141367
55.84635782
55.46300134
54.88364059
54.14866802
53.2863514
52.3232127
51.28046716
50.17618382
49.02538054
47.84025493
46.63106185
45.40770047
44.1800677
42.95769232
41.7490964
40.5613899
39.40016679
38.26962344
37.17277995
36.11171837
35.08779321
34.10180026
33.15410521
32.24473969
31.37347293
30.53986581
29.74331222
28.98307141
28.25829362
27.56804041
26.91130057
26.28700076
25.69401409
25.13115527
24.59719057
24.09079417
23.61059523
23.15530901
22.72277208
54.40500175
54.25696315
53.87227739
53.29330382
52.55989054
51.70008043
50.74006819
49.70088211
48.60043333
47.45365453
46.27266542
45.06771982
43.84891171
42.62639468
41.40988613
40.20795696
39.02764215
37.87438805
36.75222214
35.6640088
34.6117036
33.59656696
32.6193291
31.68031248
30.77952168
29.91670996
29.09142928
28.30306895
27.55088613
26.83403041
26.15156336
25.50247402
24.88568863
24.30008015
23.74446024
23.21760222
22.71816224
22.24487755
21.79622684
21.37134348
52.77941452
52.62855587
52.24277616
51.66449301
50.93301973
50.07618796
49.11987711
48.08493758
46.98912871
45.84730227
44.67150069
43.47198098
42.25904529
41.04309488
39.83400169
38.64033761
37.46901844
36.32531196
35.21306091
34.13496991
33.09287107
32.08793667
31.12083769
30.19185857
29.30098051
28.44794283
27.63228933
26.85340455
26.11054289
25.40285242
24.72939387
24.0891558
23.48106371
22.9039907
22.35674629
21.83811374
21.34673421
20.88146288
20.44055138
20.0244204
51.1172276
50.96373783
50.57715125
49.99993291
49.27086697
48.4175839
47.46565767
46.43576783
45.34552659
44.20970725
43.04027403
41.84748944
40.64187454
39.43406253
38.2340394
37.05032746
35.88968078
34.75716219
33.65641899
32.58999616
31.559608
30.56634582
29.61082769
28.69330474
27.81373757
26.97185269
26.16718569
25.39911561
24.66689306
23.96966357
23.3064862
22.67634851
22.07817519
21.5108401
20.97315175
20.46390626
19.9817325
19.52561066
19.09357294
18.68729688
49.42130845
49.26540346
48.87834945
48.30264193
47.57653779
46.72747258
45.78072216
44.75679999
43.67317381
42.54453886
41.38277829
40.19816039
39.00143283
37.80343799
36.61422981
35.44222901
34.2939886
33.17434528
32.08674539
31.03357813
30.01644758
29.03637174
28.09392177
27.18931924
26.32250591
25.49319569
24.70091524
23.94503692
23.22480634
22.53936549
21.88777102
21.26900929
20.68200435
20.12563172
19.59870018
19.10002125
18.62821359
18.18238555
17.76035693
17.36500689
47.69481808
47.53674112
47.1496114
46.5759318
45.85343014
45.00934924
44.06867145
43.05174611
41.97589698
40.85573918
39.70306991
38.52816126
37.34199188
36.15558345
34.97900706
33.82053002
32.6864692
31.58141987
30.50862676
29.47033019
28.46803282
27.5026869
26.57482183
25.68463231
24.83204192
24.01675135
23.23827703
22.49598321
21.78910927
21.11679273
20.47808739
19.8719784
19.29738973
18.75319957
18.23821829
17.7512746
17.29097826
16.85656449
16.44564862
16.06223067
45.94120981
45.78123134
45.39446904
44.82340396
44.10522925
43.26699311
42.33338588
41.32459175
40.25778844
39.14750625
38.00544946
36.84188953
35.66803689
34.49505565
33.33297973
32.18987281
31.07178607
29.98306393
28.92675325
27.90495457
26.91907839
25.97001817
25.05826558
24.18398995
23.34709634
22.5472709
21.78401814
21.05669274
20.36452669
19.70665235
19.08212044
18.48991519
17.92896117
17.39814037
16.89626576
16.42218435
15.97449757
15.55256199
15.15379866
14.78322475
44.16422461
44.00264179
43.61673972
43.04894238
42.33589899
41.50445682
40.57901255
39.57958086
38.52318867
37.42427394
36.2944389
35.14394747
33.98423893
32.82657615
31.68089952
30.555022
29.45470569
28.3840405
27.34588286
26.34220401
25.37433132
24.44310535
23.54898282
22.69210796
21.8723662
21.08942734
20.34278223
19.63177449
18.95562778
18.31346887
17.70434548
17.12724146
16.58108283
16.06475636
15.57707851
15.11691476
14.68285839
14.27437819
13.88871436
13.53177993
42.36788303
42.20501861
41.82051671
41.25670292
40.54966958
39.72605234
38.80994914
37.8211973
36.77666542
35.69068861
34.57475591
33.43911418
32.29542488
31.15499972
30.02762852
28.92083097
27.84006332
26.78916265
25.77080519
24.78684396
23.83853147
22.92665994
22.05165254
21.21362776
20.41244963
19.64776963
18.91906322
18.22566169
17.56677966
16.94153818
16.34898239
15.78809662
15.25780932
14.75701308
14.28452845
13.83923905
13.41972981
13.02557048
12.65383696
12.31120655
40.55647339
40.39267417
40.01015608
39.45109897
38.75102174
37.93633326
37.03082412
36.05414295
35.02298956
33.95158286
32.85128555
31.73231544
30.60654564
29.48528127
28.37810552
27.29220773
26.2327284
25.20325816
24.2063052
23.24361526
22.31637306
21.42532562
20.57086274
19.75307568
18.97180499
18.22668193
17.51716502
16.84257237
16.20210922
15.59489122
15.01996171
14.47630658
13.96285794
13.47851517
13.02210349
12.59252393
12.18835304
11.80924943
11.45214401
11.12434445
38.73453625
38.57017106
38.19025981
37.63678339
36.94466714
36.14007352
35.2464737
34.28331265
33.26710815
32.21194672
31.12904982
30.02859178
28.92264316
27.82244224
26.73731201
25.67408091
24.63757045
23.63113511
22.65712833
21.71719877
20.81246892
19.94364226
19.1110744
18.3148274
17.55471624
16.83035021
16.14116987
15.48647975
14.86547604
14.27726978
13.72090376
13.19536687
12.69959614
12.2324988
11.79290524
11.3797333
10.99155147
10.62809574
10.28617336
9.973593728
36.90684508
36.74230232
36.36565523
35.81862684
35.13552536
34.34224285
33.46191549
32.51376628
31.51411498
30.47689681
29.41317564
28.33306558
27.24881681
26.17153682
25.11023879
24.07136679
23.05942652
22.07754963
21.1279484
20.21218334
19.33131868
18.4860147
17.67659125
16.90307914
16.16526593
15.46273772
14.79491665
14.16109389
13.56045752
12.99211548
12.45511173
11.94843994
11.4710436
11.021839
10.59966245
10.20344832
9.831757988
9.484394867
9.158065169
8.86096239
35.07838317
34.91406796
34.54137075
34.00169246
33.3286973
32.54797884
31.6823194
30.75069839
29.76921905
28.75164398
27.70886184
26.65090763
25.59019006
24.53761908
23.50185397
22.4889385
21.50307144
20.54717699
19.62333941
18.7330384
17.87728235
17.05668769
16.27153667
15.52182693
14.80731735
14.12757027
13.48198962
12.86985419
12.29034553
11.74257056
11.22557672
10.73836473
10.27988656
9.849069256
9.444756309
9.065899023
8.7110533
8.380082306
8.06961422
7.788123471
33.25431674
33.09064761
32.72260785
32.19120701
31.52943543
30.76255625
29.91297595
28.99940576
28.03771161
27.04145997
26.02134578
24.98730417
23.95187813
22.92571206
21.91707388
20.93159865
19.973192
19.04458715
18.14775232
17.28409208
16.45456017
15.65972802
14.89983851
14.17485472
13.48450613
12.8283316
12.20571788
11.61593318
11.05815489
10.53149166
10.03499726
9.567682284
9.128509706
8.716419646
8.330264639
7.969014303
7.63122163
7.316804445
7.022335795
6.756483351
31.43996426
31.27736959
30.91470958
30.39252873
29.74311098
28.99135364
28.15926256
27.26525356
26.32493231
25.35164393
24.35587057
23.34742516
22.33895803
21.34077987
20.36073748
19.404056
18.4743656
17.57422502
16.7054971
15.86951547
15.06717954
14.29901446
13.56522234
12.86573095
12.20024056
11.5682676
10.9691836
10.40224896
9.866640211
9.361471301
8.885805884
8.438667838
8.019034234
7.625861139
7.258012582
6.9144788
6.593813277
6.295985996
6.017537108
5.767254586
29.64076227
29.47967635
29.12312564
28.61111215
27.97517854
27.23981796
26.42660829
25.55364039
24.63623498
23.68748929
22.71765351
21.73639483
20.75644153
19.78770347
18.83758498
17.91090661
17.01104356
16.14039615
15.30073102
14.49331381
13.71898944
12.97823569
12.27121326
11.59781473
10.95771229
10.35040193
9.775242864
9.231491202
8.718326722
8.234873046
7.78020809
7.353373239
6.953363476
6.579154452
6.229624833
5.903788738
5.600204293
5.318893384
5.056384384
4.821524879
27.86222758
27.70308663
27.35337444
26.85247014
26.23113838
25.51342732
24.72045731
23.86996286
22.97695368
22.05425184
21.1118567
20.15926509
19.20925148
18.27126022
17.35224041
16.45661938
15.58753975
14.74725845
13.93745358
13.15932485
12.41366247
11.70089637
11.02114607
10.37427027
9.759915268
9.177559694
8.626554104
8.106154654
7.61554908
7.15387569
6.720231728
6.313681102
5.933241353
5.577912224
5.246590975
4.938319842
4.651666412
4.386705908
4.139974647
3.920328188
26.10991629
25.95315446
25.61100235
25.12213361
24.51649685
23.81765238
23.04623169
22.21958019
21.35236966
20.45711953
19.54355989
18.62099166
17.70220154
16.79610717
15.90919881
15.045527
14.20802525
13.39882062
12.619509
11.8712256
11.15470604
10.47033281
9.818185562
9.198091408
8.609673945
8.052398403
7.525611387
7.028574312
6.560488468
6.120512639
5.707769178
5.321350201
4.960301131
4.623651054
4.310320498
4.019384908
3.749426719
3.500576908
3.269398014
3.064706977
24.38937992
24.23542546
23.90154039
23.42560906
22.83672503
22.15791656
21.40929361
20.60777905
19.76767926
18.90118383
18.01773554
17.126413
16.23997905
15.36676859
14.51281839
13.68182281
12.87652969
12.09894806
11.35059666
10.63254746
9.945482304
9.289737617
8.665355618
8.072135013
7.509680719
6.977449363
6.474789153
6.000972948
5.555222172
5.136722842
4.744629039
4.37806754
4.036117623
3.71784362
3.422194632
3.14828507
2.894718132
2.661683224
2.445786351
2.255759789
22.70611877
22.55539056
22.23045875
21.76833418
21.19721599
20.53955539
19.81490741
19.03973876
18.22796275
17.39141246
16.53922564
15.6802316
14.82713151
13.98762807
13.16731841
12.36956423
11.5969501
10.85137681
10.13429013
9.446700056
8.789236174
8.162191262
7.565573586
6.999157857
6.462535509
5.955160413
5.47638878
5.025511798
4.601778267
4.20440887
3.8325968
3.485510704
3.162270415
2.861982062
2.583629197
2.32637137
2.088838948
1.871281783
1.670366344
1.494689818
21.06553293
20.91843744
20.60311915
20.15563168
19.60324055
18.96777488
18.2682011
17.52049644
16.73815344
15.93262279
15.11272004
14.286998
13.46805694
12.66292562
11.8767828
11.11268249
10.37306646
9.659735015
8.974064188
8.317003469
7.689132357
7.09070333
6.521695323
5.98186466
5.470795744
4.987946633
4.532688832
4.104339404
3.702182347
3.325481081
2.97347605
2.645385888
2.340378615
2.057609564
1.796103406
1.555071354
1.333178033
1.130733916
0.944483721
0.7828283187
19.47287088
19.32979964
19.02472505
18.59266119
18.05990153
17.44760862
16.77412681
16.05491121
15.30300615
14.52945541
13.74273586
12.95109705
12.16699743
11.39675869
10.64516822
9.914997369
9.208562896
8.527570173
7.873327989
7.246726971
6.648299721
6.078262996
5.536572171
5.022971623
4.537045738
4.078264166
3.646021565
3.239669174
2.858534929
2.501934047
2.16916341
1.859500754
1.57217097
1.306386932
1.06122219
0.8359465067
0.6292671191
0.4415521495
0.269645025
0.1216705729
17.93317569
17.7945034
17.50026968
17.08436908
16.57208594
15.98387277
15.33741914
14.64762652
13.92706436
13.18634708
12.43359733
11.67673517
10.92803419
10.19308496
9.476314439
8.78023506
8.107052946
7.458381907
6.835465231
6.239136685
5.669886104
5.127900117
4.61311708
4.125276203
3.663968989
3.228684198
2.818847969
2.433854885
2.073086859
1.735921378
1.421722399
1.129837092
0.859557091
0.6101620319
0.3807834263
0.1707566983
-0.02115782165
-0.1945421945
-0.3524281813
-0.4870748652
16.45122886
16.31731201
16.03448157
15.6354357
15.14441429
14.58111807
13.96255035
13.3030294
12.61462467
11.90750143
11.18941353
10.46792562
9.755080426
9.055723076
8.373953049
7.71204543
7.072106156
6.455658787
5.863882216
5.297555473
4.757129859
4.24276721
3.754394985
3.291753741
2.854449408
2.441997875
2.0538659
1.68950152
1.348351892
1.029868581
0.7334949066
0.4586593178
0.2047318187
-0.02893067841
-0.2431273866
-0.4384497389
-0.6160700356
-0.7755355246
-0.9197171657
-1.041406944
15.03149141
14.90266748
14.63176723
14.25021933
13.78118626
13.24357754
12.65368105
12.0252052
11.3696966
10.69685466
10.01405033
9.32846717
8.651867331
7.988346788
7.341710579
6.714015201
6.107272709
5.522915741
4.962058847
4.425427652
3.913438085
3.426231079
2.963727989
2.525676434
2.111704037
1.721362222
1.354168219
1.009634332
0.6872852462
0.3866594386
0.1072935803
-0.1512891966
-0.389626418
-0.6082715798
-0.8079395649
-0.9891405034
-1.152958739
-1.298932169
-1.429719477
-1.538852751
13.67804237
13.55462933
13.29615034
12.93269601
12.48632137
11.97510879
11.41460493
10.81788558
10.19595452
9.55803156
8.911091058
8.261910164
7.621916834
6.994465955
6.383099546
5.789671079
5.216100593
4.663726686
4.133597281
3.626383651
3.142467358
2.681970495
2.244811729
1.830750236
1.43944144
1.070479503
0.7234412253
0.3979136772
0.09351214908
-0.1901240213
-0.4533483856
-0.6965277192
-0.9200891629
-1.124481975
-1.310315707
-1.478010345
-1.628531963
-1.761449753
-1.879136861
-1.976152203
12.39451425
12.27680998
12.03120703
11.68639463
11.26329426
10.77912979
10.24868568
9.684386813
9.096677299
8.494286637
7.883779803
7.271503286
6.668493577
6.077385703
5.501486936
4.942459956
4.402129751
3.881734653
3.382250334
2.904289622
2.44819803
2.014078678
1.601849064
1.211282282
0.8420651334
0.4938388887
0.1662467102
-0.1410407295
-0.4283044438
-0.6957899836
-0.9437221851
-1.172341007
-1.381940391
-1.57284894
-1.74554076
-1.900336754
-2.038039253
-2.158310274
-2.263137357
-2.348487048
11.18402561
11.07230687