/*--------------------------------*- C++ -*----------------------------------*\
| =========                 |                                                 |
| \\      /  F ield         | foam-extend: Open Source CFD                    |
|  \\    /   O peration     | Version:     3.2                                |
|   \\  /    A nd           | Web:         http://www.foam-extend.org         |
|    \\/     M anipulation  | For copyright notice see file Copyright         |
\*---------------------------------------------------------------------------*/
FoamFile
{
    version     2.0;
    format      ascii;
    class       surfaceScalarField;
    location    "0.12";
    object      phi;
}
// * * * * * * * * * * * * * * * * * * * * * * * * * * * * * * * * * * * * * //

dimensions      [0 3 -1 0 0 0 0];

internalField   nonuniform List<scalar> 
35720
(
9.030653214e-08
-9.030653207e-08
3.043150913e-07
-2.140084723e-07
6.100631584e-07
-3.057479443e-07
9.872016978e-07
-3.771384568e-07
1.420975628e-06
-4.337739638e-07
1.89807395e-06
-4.770984921e-07
2.407973436e-06
-5.098997678e-07
2.942009943e-06
-5.340368432e-07
3.49302138e-06
-5.510117793e-07
4.055069026e-06
-5.620479641e-07
4.623208043e-06
-5.681392728e-07
5.193302151e-06
-5.700942655e-07
5.761877301e-06
-5.685751494e-07
6.326007836e-06
-5.641303536e-07
6.883228779e-06
-5.572205975e-07
7.431468318e-06
-5.482390721e-07
7.968995272e-06
-5.375264302e-07
8.494377256e-06
-5.253814677e-07
9.006446151e-06
-5.120684596e-07
9.504268522e-06
-4.978221024e-07
9.987119498e-06
-4.828509396e-07
1.045445907e-05
-4.673397626e-07
1.090591028e-05
-4.514515302e-07
1.134123905e-05
-4.353290941e-07
1.176033557e-05
-4.190967395e-07
1.216319715e-05
-4.02861693e-07
1.254991258e-05
-3.867154325e-07
1.292064767e-05
-3.707350422e-07
1.32756322e-05
-3.549844651e-07
1.361514786e-05
-3.395156475e-07
1.393951758e-05
-3.243697875e-07
1.424909597e-05
-3.095785338e-07
1.454426156e-05
-2.951657531e-07
1.482541188e-05
-2.811504368e-07
1.509296386e-05
-2.675520067e-07
1.534736377e-05
-2.543998088e-07
1.558911382e-05
-2.417498701e-07
1.58188254e-05
-2.297113978e-07
1.603734109e-05
-2.185155334e-07
-2.078197477e-07
1.624516091e-05
9.181090864e-08
-1.821173749e-07
3.23623582e-07
-4.45821012e-07
6.621628931e-07
-6.44287169e-07
1.085270746e-06
-8.002463706e-07
1.574745541e-06
-9.23249022e-07
2.115246424e-06
-1.017599813e-06
2.694172705e-06
-1.088826593e-06
3.301045265e-06
-1.140909972e-06
3.92717656e-06
-1.1771436e-06
4.565352644e-06
-1.200224465e-06
5.209577791e-06
-1.212364644e-06
5.854864133e-06
-1.215380581e-06
6.497060609e-06
-1.210771303e-06
7.132715549e-06
-1.199784703e-06
7.758967168e-06
-1.183471441e-06
8.373456271e-06
-1.162727309e-06
8.974256008e-06
-1.138325329e-06
9.55981442e-06
-1.110939194e-06
1.01289063e-05
-1.081159929e-06
1.068059184e-05
-1.049507596e-06
1.121418045e-05
-1.016439847e-06
1.172919847e-05
-9.823583e-07
1.222536014e-05
-9.476137469e-07
1.270254133e-05
-9.12510725e-07
1.316075586e-05
-8.773115441e-07
1.360013421e-05
-8.422401618e-07
1.40209044e-05
-8.074855898e-07
1.442337482e-05
-7.732053335e-07
1.480791896e-05
-7.395284669e-07
1.517496163e-05
-7.065582662e-07
1.552496646e-05
-6.743746957e-07
1.585842355e-05
-6.430358075e-07
1.617583555e-05
-6.125780341e-07
1.64776988e-05
-5.830140115e-07
1.676447296e-05
-5.543263918e-07
1.703652791e-05
-5.264547899e-07
1.72940522e-05
-4.992740843e-07
1.753689584e-05
-4.725550946e-07
1.776433705e-05
-4.459568973e-07
-4.199220789e-07
1.797643938e-05
9.160389177e-08
-2.737212072e-07
3.292541827e-07
-6.83471184e-07
6.786530661e-07
-9.936859765e-07
1.116397244e-06
-1.237990604e-06
1.623197582e-06
-1.43004959e-06
2.183330682e-06
-1.577733292e-06
2.783802333e-06
-1.689298714e-06
3.413819919e-06
-1.770928051e-06
4.064433e-06
-1.827757141e-06
4.728198787e-06
-1.863990615e-06
5.398919207e-06
-1.883085263e-06
6.071425337e-06
-1.887886695e-06
6.741402554e-06
-1.880748258e-06
7.405250122e-06
-1.863631794e-06
8.059969421e-06
-1.838190119e-06
8.703075022e-06
-1.805832217e-06
9.332523328e-06
-1.767772965e-06
9.946654378e-06
-1.725069706e-06
1.054414325e-05
-1.678648498e-06
1.112395844e-05
-1.62932277e-06
1.168532547e-05
-1.577807107e-06
1.222769446e-05
-1.524727656e-06
1.275071098e-05
-1.470630617e-06
1.325418965e-05
-1.415989656e-06
1.373809039e-05
-1.361212413e-06
1.420249695e-05
-1.306646756e-06
1.464759772e-05
-1.252586318e-06
1.507366852e-05
-1.199276084e-06
1.548105752e-05
-1.146917464e-06
1.587017205e-05
-1.095672892e-06
1.624146786e-05
-1.045670675e-06
1.659544119e-05
-9.970093182e-07
1.69326256e-05
-9.49762591e-07
1.72535971e-05
-9.039855917e-07
1.755899402e-05
-8.597232978e-07
1.784956127e-05
-8.170219388e-07
1.812623603e-05
-7.759486677e-07
1.839027788e-05
-7.365968465e-07
1.864352264e-05
-6.992016885e-07
-6.626842385e-07
1.888628476e-05
8.969662081e-08
-3.634177754e-07
3.280201787e-07
-9.217946356e-07
6.811898579e-07
-1.346855587e-06
1.124910873e-06
-1.681711663e-06
1.639309441e-06
-1.944448356e-06
2.208368426e-06
-2.146792604e-06
2.818823697e-06
-2.299754394e-06
3.459672981e-06
-2.411777769e-06
4.121788882e-06
-2.489873449e-06
4.79757883e-06
-2.539780892e-06
5.480717385e-06
-2.566223999e-06
6.165926806e-06
-2.57309611e-06
6.848799081e-06
-2.563620315e-06
7.525652851e-06
-2.540485161e-06
8.19341953e-06
-2.50595627e-06
8.849552825e-06
-2.461964916e-06
9.49195627e-06
-2.410175833e-06
1.011892428e-05
-2.352037257e-06
1.072909298e-05
-2.288816964e-06
1.132139819e-05
-2.221628001e-06
1.189503862e-05
-2.151447773e-06
1.244944311e-05
-2.079132487e-06
1.298424112e-05
-2.005428949e-06
1.349923607e-05
-1.930984831e-06
1.399438125e-05
-1.85635769e-06
1.446975818e-05
-1.782023668e-06
1.492555719e-05
-1.708385219e-06
1.536206013e-05
-1.635778902e-06
1.577962517e-05
-1.564482468e-06
1.617867345e-05
-1.49472124e-06
1.655967717e-05
-1.426674605e-06
1.692314865e-05
-1.360481093e-06
1.726962883e-05
-1.29624307e-06
1.759967315e-05
-1.234030066e-06
1.791383111e-05
-1.173881225e-06
1.821261348e-05
-1.115804232e-06
1.849644771e-05
-1.059782809e-06
1.876559273e-05
-1.005741855e-06
1.902011179e-05
-9.537208082e-07
-9.038794568e-07
1.926130699e-05
8.804295836e-08
-4.514606864e-07
3.262002496e-07
-1.159951829e-06
6.816701924e-07
-1.702325463e-06
1.129530912e-06
-2.129572416e-06
1.649501564e-06
-2.464419177e-06
2.225284854e-06
-2.722576181e-06
2.843376683e-06
-2.917846587e-06
3.492588138e-06
-3.060989617e-06
4.163633661e-06
-3.160919349e-06
4.848787997e-06
-3.224935536e-06
5.541613632e-06
-3.25904981e-06
6.236737418e-06
-3.268219905e-06
6.929669205e-06
-3.256551922e-06
7.616655906e-06
-3.227471521e-06
8.294565464e-06
-3.183865375e-06
8.96079489e-06
-3.128193825e-06
9.6131969e-06
-3.062577339e-06
1.025002045e-05
-2.98886042e-06
1.086986135e-05
-2.908657658e-06
1.147161995e-05
-2.823386635e-06
1.20544643e-05
-2.734292321e-06
1.261779708e-05
-2.642465533e-06
1.316122585e-05
-2.548857965e-06
1.368453612e-05
-2.454295276e-06
1.418766695e-05
-2.359488599e-06
1.467068897e-05
-2.265045669e-06
1.513378459e-05
-2.171480756e-06
1.557723046e-05
-2.079224709e-06
1.600138216e-05
-1.988634172e-06
1.640666088e-05
-1.900000062e-06
1.679354258e-05
-1.813556497e-06
1.716254969e-05
-1.729488488e-06
1.751424638e-05
-1.64794009e-06
1.784923825e-05
-1.569022194e-06
1.816817817e-05
-1.492821214e-06
1.847177723e-05
-1.419403254e-06
1.876082597e-05
-1.34883156e-06
1.903620444e-05
-1.281120343e-06
1.929889596e-05
-1.216412423e-06
-1.15386916e-06
1.954888565e-05
8.689438608e-08
-5.383550285e-07
3.249776544e-07
-1.398035005e-06
6.824688548e-07
-2.059816598e-06
1.134039847e-06
-2.581143432e-06
1.659104563e-06
-2.989484039e-06
2.241098075e-06
-3.304569948e-06
2.866292773e-06
-3.543041615e-06
3.523323397e-06
-3.718020607e-06
4.202755281e-06
-3.840351589e-06
4.896739063e-06
-3.918919615e-06
5.598733307e-06
-3.961044228e-06
6.303277158e-06
-3.972763778e-06
7.00580533e-06
-3.959079948e-06
7.702499118e-06
-3.924165021e-06
8.390168117e-06
-3.871533985e-06
9.066156854e-06
-3.804182116e-06
9.728270737e-06
-3.724690792e-06
1.037471638e-05
-3.635305747e-06
1.100405226e-05
-3.537993394e-06
1.161514656e-05
-3.43448099e-06
1.220714038e-05
-3.326286326e-06
1.277941473e-05
-3.214740103e-06
1.333156071e-05
-3.101004117e-06
1.386335241e-05
-2.986087081e-06
1.437472237e-05
-2.870858554e-06
1.486573926e-05
-2.756062478e-06
1.533658788e-05
-2.642329263e-06
1.578755124e-05
-2.530188008e-06
1.62189947e-05
-2.420077657e-06
1.66313516e-05
-2.312357099e-06
1.702511032e-05
-2.207315472e-06
1.740080194e-05
-2.105180401e-06
1.775898755e-05
-2.006125938e-06
1.810024407e-05
-1.910278879e-06
1.842514822e-05
-1.817725426e-06
1.873425703e-05
-1.728512032e-06
1.90280898e-05
-1.642664364e-06
1.930710878e-05
-1.560139385e-06
1.957170684e-05
-1.481010588e-06
-1.405208407e-06
1.982304607e-05
8.61780488e-08
-6.245330355e-07
3.244485011e-07
-1.636305368e-06
6.839609608e-07
-2.419328991e-06
1.139146069e-06
-3.036328554e-06
1.669176218e-06
-3.519514314e-06
2.257231523e-06
-3.892625484e-06
2.889371824e-06
-4.175182223e-06
3.554060191e-06
-4.38270932e-06
4.241716643e-06
-4.528008383e-06
4.944370815e-06
-4.621574075e-06
5.655379968e-06
-4.672053552e-06
6.369197594e-06
-4.686581436e-06
7.081184433e-06
-4.671066668e-06
7.787456095e-06
-4.630436435e-06
8.48476234e-06
-4.568839891e-06
9.170392303e-06
-4.489811689e-06
9.842099903e-06
-4.396398024e-06
1.04980442e-05
-4.291249789e-06
1.113674036e-05
-4.176689458e-06
1.175701784e-05
-4.054758545e-06
1.235798384e-05
-3.9272525e-06
1.293899038e-05
-3.795746836e-06
1.34996044e-05
-3.661618284e-06
1.403958043e-05
-3.526063181e-06
1.455883561e-05
-3.390113701e-06
1.505742693e-05
-3.254653683e-06
1.553553059e-05
-3.120432797e-06
1.599342357e-05
-2.988080922e-06
1.643146722e-05
-2.858121316e-06
1.68500926e-05
-2.730982627e-06
1.724978812e-05
-2.607011293e-06
1.763108907e-05
-2.486481753e-06
1.799456946e-05
-2.369606687e-06
1.834083607e-05
-2.2565457e-06
1.867052477e-05
-2.147414214e-06
1.898429832e-05
-2.042285607e-06
1.928284263e-05
-1.941208736e-06
1.956686932e-05
-1.844166169e-06
1.983706265e-05
-1.751204048e-06
-1.661912943e-06
2.009376717e-05
8.580238804e-08
-7.10335383e-07
3.245344222e-07
-1.875037314e-06
6.86147402e-07
-2.780941901e-06
1.144952695e-06
-3.495133851e-06
1.6799278e-06
-4.054489528e-06
2.274012965e-06
-4.486710858e-06
2.91306568e-06
-4.814235226e-06
3.585381605e-06
-5.055025578e-06
4.281239054e-06
-5.223866166e-06
4.992549749e-06
-5.33288505e-06
5.712572593e-06
-5.392076568e-06
6.435678143e-06
-5.409687029e-06
7.15715527e-06
-5.3925437e-06
7.873055032e-06
-5.346335989e-06
8.580067355e-06
-5.275851923e-06
9.27542494e-06
-5.185168939e-06
9.956828431e-06
-5.077801203e-06
1.062238722e-05
-4.956808373e-06
1.127057112e-05
-4.824873314e-06
1.190016938e-05
-4.684356881e-06
1.251025456e-05
-4.537337826e-06
1.310015002e-05
-4.385642439e-06
1.366940005e-05
-4.230868412e-06
1.421774243e-05
-4.074405577e-06
1.474508307e-05
-3.917454267e-06
1.525147282e-05
-3.761043317e-06
1.573708636e-05
-3.606046218e-06
1.620220302e-05
-3.453197544e-06
1.664718961e-05
-3.303107963e-06
1.707248463e-05
-3.156277828e-06
1.747858411e-05
-3.013111072e-06
1.786602832e-05
-2.87392632e-06
1.823538906e-05
-2.738967781e-06
1.858725746e-05
-2.608414359e-06
1.892223213e-05
-2.482388992e-06
1.924090893e-05
-2.360962481e-06
1.954387082e-05
-2.244170728e-06
1.983169252e-05
-2.13198801e-06
2.010491098e-05
-2.024422639e-06
-1.921374349e-06
2.036437238e-05
8.568739624e-08
-7.960227396e-07
3.25124344e-07
-2.114474175e-06
6.889316392e-07
-3.144749124e-06
1.151386607e-06
-3.957588814e-06
1.691306966e-06
-4.594409979e-06
2.291409406e-06
-5.08681349e-06
2.937358826e-06
-5.460184919e-06
3.617287561e-06
-5.734954636e-06
4.321335383e-06
-5.927914315e-06
5.041298572e-06
-6.052848514e-06
5.770339932e-06
-6.121118097e-06
6.502748909e-06
-6.14209606e-06
7.233743413e-06
-6.123538134e-06
7.959309448e-06
-6.071901854e-06
8.67607499e-06
-5.992617223e-06
9.381212695e-06
-5.890306364e-06
1.007236518e-05
-5.768953442e-06
1.074758675e-05
-5.632029807e-06
1.140529629e-05
-5.482582848e-06
1.204423729e-05
-5.323297973e-06
1.266344258e-05
-5.15654324e-06
1.326220213e-05
-4.984402099e-06
1.384003326e-05
-4.808699586e-06
1.439665282e-05
-4.631025091e-06
1.493195128e-05
-4.452752596e-06
1.544596881e-05
-4.275060676e-06
1.59388733e-05
-4.098950554e-06
1.641094038e-05
-3.925264555e-06
1.686253545e-05
-3.754703067e-06
1.729409741e-05
-3.587839979e-06
1.770612458e-05
-3.42513859e-06
1.809916242e-05
-3.266964546e-06
1.847379294e-05
-3.113598648e-06
1.883062611e-05
-2.965247767e-06
1.917029244e-05
-2.82205544e-06
1.94934373e-05
-2.684107452e-06
1.980071218e-05
-2.551445759e-06
2.009277744e-05
-2.42405343e-06
2.037026116e-05
-2.301906506e-06
-2.184809925e-06
2.063369675e-05
8.577254517e-08
-8.817952455e-07
3.261225398e-07
-2.354824083e-06
6.922161074e-07
-3.510842616e-06
1.158353457e-06
-4.423726148e-06
1.703220228e-06
-5.139276829e-06
2.30932685e-06
-5.692920286e-06
2.962155613e-06
-6.113013942e-06
3.649680257e-06
-6.422479592e-06
4.361905586e-06
-6.64013996e-06
5.090515283e-06
-6.781458476e-06
5.828578707e-06
-6.859181684e-06
6.570306379e-06
-6.88382379e-06
7.310846309e-06
-6.864078015e-06
8.046118882e-06
-6.80717429e-06
8.772687759e-06
-6.719185901e-06
9.48766167e-06
-6.605280048e-06
1.018862039e-05
-6.469911977e-06
1.087355807e-05
-6.31696741e-06
1.154083794e-05
-6.149862748e-06
1.218915388e-05
-5.97161403e-06
1.28174963e-05
-5.78488578e-06
1.342512041e-05
-5.592026307e-06
1.401151653e-05
-5.395095722e-06
1.457638184e-05
-5.19589033e-06
1.511959389e-05
-4.995964478e-06
1.564118579e-05
-4.796652396e-06
1.614132342e-05
-4.599088049e-06
1.662028452e-05
-4.404225613e-06
1.707843974e-05
-4.212858349e-06
1.751623539e-05
-4.02563584e-06
1.793417819e-05
-3.843081734e-06
1.833282141e-05
-3.665608152e-06
1.871275234e-05
-3.493529914e-06
1.907458123e-05
-3.327076878e-06
1.941893143e-05
-3.166405752e-06
1.974643194e-05
-3.011608074e-06
2.005770935e-05
-2.862723332e-06
2.035339114e-05
-2.719735396e-06
2.063408308e-05
-2.582598595e-06
-2.451216749e-06
2.090048994e-05
8.601094068e-08
-9.678061473e-07
3.274475224e-07
-2.596260579e-06
6.959096413e-07
-3.879304656e-06
1.165755327e-06
-4.893571811e-06
1.715560116e-06
-5.689081683e-06
2.327645653e-06
-6.305005983e-06
2.987321691e-06
-6.772690228e-06
3.682408646e-06
-7.117566848e-06
4.402780182e-06
-7.360511799e-06
5.140010421e-06
-7.518688964e-06
5.887078032e-06
-7.606249447e-06
6.638116648e-06
-7.634862463e-06
7.388204922e-06
-7.614166253e-06
8.133196031e-06
-7.55216529e-06
8.869585545e-06
-7.455575253e-06
9.594412744e-06
-7.330107068e-06
1.030518808e-05
-7.180687177e-06
1.099983891e-05
-7.011618219e-06
1.167666679e-05
-6.826690686e-06
1.233431102e-05
-6.62925838e-06
1.297171586e-05
-6.422290732e-06
1.358809937e-05
-6.208409889e-06
1.418292354e-05
-5.989919872e-06
1.475586542e-05
-5.768832104e-06
1.530678967e-05
-5.546888534e-06
1.583572262e-05
-5.325585141e-06
1.634282828e-05
-5.106193548e-06
1.68283863e-05
-4.889783562e-06
1.729277203e-05
-4.677244128e-06
1.773643858e-05
-4.469302607e-06
1.815990125e-05
-4.266544753e-06
1.856372379e-05
-4.069431069e-06
1.894850656e-05
-3.878313005e-06
1.931487662e-05
-3.693447136e-06
1.966347912e-05
-3.515008336e-06
1.999497048e-05
-3.34309952e-06
2.031001039e-05
-3.177763401e-06
2.06092611e-05
-3.018986269e-06
2.089336573e-05
-2.866703377e-06
-2.720787699e-06
2.116293673e-05
8.636647168e-08
-1.054172581e-06
3.290323403e-07
-2.838926362e-06
6.999331327e-07
-4.250205369e-06
1.173503121e-06
-5.367141769e-06
1.728225269e-06
-6.243803885e-06
2.346249617e-06
-6.92303048e-06
3.01272351e-06
-7.439164356e-06
3.715319895e-06
-7.82016352e-06
4.443785502e-06
-8.08897769e-06
5.189588275e-06
-8.264491965e-06
5.945619217e-06
-8.362280521e-06
6.70593713e-06
-8.395180427e-06
7.465551433e-06
-8.37378053e-06
8.220245646e-06
-8.306859418e-06
8.966442298e-06
-8.201771779e-06
9.701104511e-06
-8.064769149e-06
1.042166599e-05
-7.901248581e-06
1.11259803e-05
-7.715932544e-06
1.181228142e-05
-7.512991899e-06
1.247914996e-05
-7.29612704e-06
1.312548178e-05
-7.068622642e-06
1.375045734e-05
-6.833385487e-06
1.435351147e-05
-6.59297396e-06
1.493430364e-05
-6.34962413e-06
1.549268916e-05
-6.105273822e-06
1.602869189e-05
-5.861587665e-06
1.654247897e-05
-5.619980465e-06
1.703433741e-05
-5.381641923e-06
1.750465303e-05
-5.147559809e-06
1.795389164e-05
-4.918541421e-06
1.838258243e-05
-4.695235865e-06
1.87913034e-05
-4.478152379e-06
1.918066859e-05
-4.267678471e-06
1.955131721e-05
-4.064095907e-06
1.990390428e-05
-3.867595459e-06
2.023909329e-05
-3.678288604e-06
2.055754918e-05
-3.496219431e-06
2.085993685e-05
-3.321374086e-06
2.114690814e-05
-3.153674799e-06
-2.993013313e-06
2.141913382e-05
8.68107629e-08
-1.140983306e-06
3.308210436e-07
-3.082936561e-06
7.042168915e-07
-4.623601138e-06
1.181515083e-06
-5.844439928e-06
1.741119914e-06
-6.803408762e-06
2.365026234e-06
-7.546936939e-06
3.038229033e-06
-8.112367378e-06
3.7482601e-06
-8.530194859e-06
4.484743744e-06
-8.825461594e-06
5.239045399e-06
-9.018793819e-06
6.003971583e-06
-9.127206813e-06
6.773508143e-06
-9.164717029e-06
7.542594656e-06
-9.142867025e-06
8.306941273e-06
-9.071205973e-06
9.062890978e-06
-8.957721391e-06
9.807322502e-06
-8.809200586e-06
1.053758425e-05
-8.6315103e-06
1.12514483e-05
-8.429796661e-06
1.194707525e-05
-8.20861897e-06
1.262298336e-05
-7.972035272e-06
1.32780187e-05
-7.723658067e-06
1.391132476e-05
-7.466691577e-06
1.452231146e-05
-7.203960579e-06
1.511062392e-05
-6.937936422e-06
1.567611206e-05
-6.670761732e-06
1.621880152e-05
-6.404276918e-06
1.673886663e-05
-6.140045416e-06
1.723660554e-05
-5.879380777e-06
1.771241799e-05
-5.623372321e-06
1.816678545e-05
-5.372909082e-06
1.860025399e-05
-5.128704703e-06
1.901341935e-05
-4.89131803e-06
1.940691413e-05
-4.661173466e-06
1.978139707e-05
-4.438578951e-06
2.013754394e-05
-4.223742343e-06
2.047604004e-05
-4.016784736e-06
2.079757311e-05
-3.817752608e-06
2.110282972e-05
-3.626630825e-06
2.139248409e-05
-3.443329263e-06
-3.267719581e-06
2.166719044e-05
8.732125798e-08
-1.228304529e-06
3.32766496e-07
-3.328381722e-06
7.086992019e-07
-4.999533769e-06
1.189716277e-06
-6.325456968e-06
1.754154276e-06
-7.367846801e-06
2.383868197e-06
-8.176650991e-06
3.063710559e-06
-8.792209951e-06
3.781078658e-06
-9.247563207e-06
4.525479154e-06
-9.56986232e-06
5.288178915e-06
-9.781493744e-06
6.061903283e-06
-9.900931261e-06
6.840566733e-06
-9.943380509e-06
7.619037492e-06
-9.92133777e-06
8.392947206e-06
-9.845115639e-06
9.158551193e-06
-9.723325311e-06
9.912634205e-06
-9.563283547e-06
1.065245e-05
-9.371326108e-06
1.137568155e-05
-9.153028304e-06
1.208041097e-05
-8.913348521e-06
1.276509196e-05
-8.65671639e-06
1.342852134e-05
-8.387087525e-06
1.40698084e-05
-8.107978643e-06
1.468834255e-05
-7.822494631e-06
1.528376018e-05
-7.533353856e-06
1.585591197e-05
-7.24291327e-06
1.640483169e-05
-6.953196421e-06
1.69307072e-05
-6.66592077e-06
1.743385392e-05
-6.382527447e-06
1.791469124e-05
-6.104209715e-06
1.837372164e-05
-5.831939679e-06
1.88115127e-05
-5.566496039e-06
1.922868154e-05
-5.30848712e-06
1.962588148e-05
-5.058373559e-06
2.000379085e-05
-4.816488361e-06
2.036310362e-05
-4.58305507e-06
2.070452165e-05
-4.358202766e-06
2.102874804e-05
-4.141979072e-06
2.133648294e-05
-3.934365813e-06
2.162841541e-05
-3.735261793e-06
-3.544528343e-06
2.190522428e-05
8.787975077e-08
-1.316184246e-06
3.348283301e-07
-3.575330229e-06
7.133244418e-07
-5.37802981e-06
1.198036868e-06
-6.810169361e-06
1.767242884e-06
-7.937052854e-06
2.402671707e-06
-8.812079936e-06
3.089042994e-06
-9.478581435e-06
3.813626427e-06
-9.972146867e-06
4.565816e-06
-1.032205209e-05
5.336784167e-06
-1.055246204e-05
6.119178433e-06
-1.068332558e-05
6.906843012e-06
-1.07310451e-05
7.694572126e-06
-1.070906687e-05
8.477912121e-06
-1.06284556e-05
9.253020829e-06
-1.049843397e-05
1.001657817e-05
-1.032684087e-05
1.076573347e-05
-1.012048144e-05
1.149807337e-05
-9.885368313e-06
1.221159771e-05
-9.626872986e-06
1.290469526e-05
-9.349814051e-06
1.357611621e-05
-9.058508536e-06
1.422494058e-05
-8.756802997e-06
1.48505437e-05
-8.448097633e-06
1.545256039e-05
-8.135370333e-06
1.603084945e-05
-7.821202067e-06
1.658545983e-05
-7.507806595e-06
1.711659942e-05
-7.197060212e-06
1.762460662e-05
-6.890534601e-06
1.810992535e-05
-6.589528528e-06
1.857308317e-05
-6.295097704e-06
1.90146726e-05
-6.008085731e-06
1.943533512e-05
-5.729149837e-06
1.983574757e-05
-5.458786104e-06
2.021661097e-05
-5.197351728e-06
2.057864104e-05
-4.945085048e-06
2.092256044e-05
-4.702122118e-06
2.1249092e-05
-4.468510679e-06
2.155895385e-05
-4.244227721e-06
2.185285198e-05
-4.029159941e-06
-3.823146481e-06
2.213147023e-05
8.847134499e-08
-1.404655561e-06
3.369714567e-07
-3.823830277e-06
7.180417247e-07
-5.759100015e-06
1.206410875e-06
-7.298538483e-06
1.78030334e-06
-8.510945355e-06
2.421335242e-06
-9.453111955e-06
3.114102645e-06
-1.017134902e-05
3.845754592e-06
-1.070379902e-05
4.605577528e-06
-1.108187519e-05
5.384653795e-06
-1.13315384e-05
6.175556338e-06
-1.147422815e-05
6.972059575e-06
-1.152754834e-05
7.768879701e-06
-1.150588698e-05
8.561469177e-06
-1.142104504e-05
9.345876872e-06
-1.128284163e-05
1.011866608e-05
-1.109963007e-05
1.087687196e-05
-1.087868738e-05
1.161797876e-05
-1.062647524e-05
1.233990219e-05
-1.034879653e-05
1.30409682e-05
-1.005088014e-05
1.371988561e-05
-9.737425987e-06
1.437571262e-05
-9.412629967e-06
1.500781911e-05
-9.080203994e-06
1.561584734e-05
-8.743398338e-06
1.619967294e-05
-8.40502742e-06
1.675936814e-05
-8.067501614e-06
1.729516802e-05
-7.732859966e-06
1.780744015e-05
-7.402806699e-06
1.829665819e-05
-7.078746656e-06
1.876337902e-05
-6.761818736e-06
1.920822341e-05
-6.45293036e-06
1.963185957e-05
-6.152786153e-06
2.00349893e-05
-5.861915881e-06
2.041833667e-05
-5.580699017e-06
2.078263849e-05
-5.309386725e-06
2.112863649e-05
-5.048120049e-06
2.145707081e-05
-4.796945012e-06
2.176867484e-05
-4.555831788e-06
2.206416869e-05
-4.324653783e-06
-4.103228057e-06
2.234425039e-05
8.90836732e-08
-1.493739208e-06
3.391648714e-07
-4.073911421e-06
7.228037485e-07
-6.142738839e-06
1.21477502e-06
-7.790509733e-06
1.793255046e-06
-9.089425422e-06
2.439758148e-06
-1.009961517e-05
3.138765658e-06
-1.087035671e-05
3.877312934e-06
-1.144234648e-05
4.644584054e-06
-1.184914644e-05
5.431575628e-06
-1.211853003e-05
6.230789144e-06
-1.227344167e-05
7.035928862e-06
-1.233268805e-05
7.841627358e-06
-1.231158546e-05
8.643232734e-06
-1.222265039e-05
9.436671927e-06
-1.20762808e-05
1.021837928e-05
-1.188133745e-05
1.098526678e-05
-1.164557494e-05
1.173471205e-05
-1.137592062e-05
1.246454736e-05
-1.107863195e-05
1.317304091e-05
-1.075937375e-05
1.385886829e-05
-1.042325338e-05
1.452107582e-05
-1.007483743e-05
1.515903857e-05
-9.718166578e-06
1.577241656e-05
-9.356776093e-06
1.636111179e-05
-8.99372242e-06
1.692522807e-05
-8.631617735e-06
1.746503458e-05
-8.272666381e-06
1.798093362e-05
-7.918705734e-06
1.847343284e-05
-7.571245992e-06
1.894312158e-05
-7.231507672e-06
1.939065096e-05
-6.900459968e-06
1.98167173e-05
-6.578852625e-06
2.022204819e-05
-6.267246773e-06
2.060739117e-05
-5.966041899e-06
2.097350443e-05
-5.675499828e-06
2.132114897e-05
-5.395764502e-06
2.165108217e-05
-5.126878225e-06
2.196405257e-05
-4.868802211e-06
2.226079336e-05
-4.621394548e-06
-4.384445622e-06
2.254201105e-05
8.970630507e-08
-1.58344549e-06
3.41380717e-07
-4.325585789e-06
7.275658697e-07
-6.528923951e-06
1.223067758e-06
-8.286011612e-06
1.806018113e-06
-9.672375825e-06
2.457839394e-06
-1.075143657e-05
3.162906597e-06
-1.157542408e-05
3.908148244e-06
-1.218758829e-05
4.682651208e-06
-1.262364951e-05
5.47733076e-06
-1.291320962e-05
6.284619751e-06
-1.308073064e-05
7.098150916e-06
-1.31462192e-05
7.912465883e-06
-1.31259004e-05
8.722796047e-06
-1.303298052e-05
9.524932232e-06
-1.287841697e-05
1.031516758e-05
-1.267157282e-05
1.109028333e-05
-1.242069077e-05
1.18475488e-05
-1.21331862e-05
1.258471683e-05
-1.181580005e-05
1.330000615e-05
-1.147466309e-05
1.39920703e-05
-1.111531749e-05
1.465995606e-05
-1.074272308e-05
1.530305597e-05
-1.036126629e-05
1.59210592e-05
-9.97477907e-06
1.651390398e-05
-9.586566975e-06
1.708173383e-05
-9.199447451e-06
1.762485844e-05
-8.815790938e-06
1.814371962e-05
-8.437566956e-06
1.863886239e-05
-8.06638891e-06
1.911091066e-05
-7.703556165e-06
1.956054709e-05
-7.350096634e-06
1.998849644e-05
-7.006802098e-06
2.039551173e-05
-6.674262058e-06
2.078236313e-05
-6.352893191e-06
2.11498288e-05
-6.042965358e-06
2.149868734e-05
-5.744622963e-06
2.182971142e-05
-5.457902323e-06
2.214366267e-05
-5.182753486e-06
2.24412852e-05
-4.919017066e-06
-4.666454849e-06
2.272329454e-05
9.033029786e-08
-1.673775771e-06
3.435935666e-07
-4.578849026e-06
7.322854123e-07
-6.917615771e-06
1.231228586e-06
-8.78495479e-06
1.818512582e-06
-1.025965988e-05
2.475476683e-06
-1.14084008e-05
3.186397445e-06
-1.228634501e-05
3.938103203e-06
-1.29392942e-05
4.719588711e-06
-1.340513511e-05
5.521692227e-06
-1.371531315e-05
6.336780406e-06
-1.38958188e-05
7.158411913e-06
-1.396785069e-05
7.981028247e-06
-1.394851671e-05
8.799729976e-06
-1.385168222e-05
9.610156864e-06
-1.368884385e-05
1.040844934e-05
-1.346986533e-05
1.119125261e-05
-1.320349412e-05
1.195572934e-05
-1.289766301e-05
1.269956056e-05
-1.255963131e-05
1.342092743e-05
-1.219602993e-05
1.411847542e-05
-1.18128654e-05
1.479126622e-05
-1.141551371e-05
1.543872332e-05
-1.100872314e-05
1.606057673e-05
-1.05966322e-05
1.665681047e-05
-1.01828005e-05
1.722761511e-05
-9.77025199e-06
1.777334612e-05
-9.361521937e-06
1.829448824e-05
-8.958709171e-06
1.879162578e-05
-8.563526649e-06
1.926541796e-05
-8.177348607e-06
1.97165788e-05
-7.801257723e-06
2.014586064e-05
-7.436084074e-06
2.055404069e-05
-7.082442115e-06
2.094191023e-05
-6.740762641e-06
2.13102658e-05
-6.411320807e-06
2.165990187e-05
-6.094259e-06
2.199160477e-05
-5.789605265e-06
2.230614751e-05
-5.497296276e-06
2.260428327e-05
-5.217152832e-06
-4.948905227e-06
2.288673373e-05
9.094782689e-08
-1.764723585e-06
3.457797807e-07
-4.833680962e-06
7.369209582e-07
-7.308756941e-06
1.239197209e-06
-9.287231064e-06
1.830657409e-06
-1.085112016e-05
2.492565206e-06
-1.207030874e-05
3.209106107e-06
-1.300288609e-05
3.967014644e-06
-1.369720289e-05
4.755198393e-06
-1.419331893e-05
5.564422808e-06
-1.452453757e-05
6.386990304e-06
-1.471838627e-05
7.216381622e-06
-1.479724199e-05
8.046927046e-06
-1.477906212e-05
8.873580649e-06
-1.46783358e-05
9.691815975e-06
-1.450707917e-05
1.049761082e-05
-1.427566021e-05
1.128747215e-05
-1.399335553e-05
1.205846157e-05
-1.366865251e-05
1.280820004e-05
-1.330936978e-05
1.353484647e-05
-1.29226763e-05
1.423705492e-05
-1.251507372e-05
1.491391788e-05
-1.209237646e-05
1.556490378e-05
-1.165970875e-05
1.618979485e-05
-1.122152299e-05
1.678862955e-05
-1.078163499e-05
1.736165147e-05
-1.034327383e-05
1.790926555e-05
-9.909136039e-06
1.843200128e-05
-9.481445037e-06
1.893048261e-05
-9.062008219e-06
1.940540335e-05
-8.652269646e-06
1.985750742e-05
-8.253362066e-06
2.028757283e-05
-7.866149641e-06
2.069639877e-05
-7.491268083e-06
2.108479529e-05
-7.129159113e-06
2.145357497e-05
-6.780100414e-06
2.180354589e-05
-6.444229931e-06
2.213550578e-05
-6.121565244e-06
2.245023695e-05
-5.812027542e-06
2.274849966e-05
-5.515415569e-06
-5.23142566e-06
2.303102014e-05
9.155192443e-08
-1.856275502e-06
3.479171067e-07
-5.09004614e-06
7.414320161e-07
-7.70227186e-06
1.246913281e-06
-9.792712372e-06
1.842370242e-06
-1.144657722e-05
2.508997462e-06
-1.273693612e-05
3.230896265e-06
-1.372478507e-05
3.994713458e-06
-1.446102023e-05
4.789274186e-06
-1.498787973e-05
5.605275137e-06
-1.534053854e-05
6.434955885e-06
-1.554806701e-05
7.271713965e-06
-1.563400008e-05
8.109755476e-06
-1.561710363e-05
8.94387112e-06
-1.551245144e-05
9.769353555e-06
-1.533256162e-05
1.058201045e-05
-1.508831716e-05
1.137821226e-05
-1.478955742e-05
1.215492963e-05
-1.444536993e-05
1.29097393e-05
-1.406417941e-05
1.364079659e-05
-1.365373348e-05
1.434678273e-05
-1.322105968e-05
1.502683778e-05
-1.277243124e-05
1.568048878e-05
-1.231335943e-05
1.630758055e-05
-1.184861446e-05
1.690821295e-05
-1.138226718e-05
1.74826867e-05
-1.091774753e-05
1.803145795e-05
-1.045790734e-05
1.855510087e-05
-1.000508811e-05
1.905427766e-05
-9.561185276e-06
1.952971451e-05
-9.127706822e-06
1.998218252e-05
-8.705830381e-06
2.041248247e-05
-8.296449774e-06
2.08214326e-05
-7.900218275e-06
2.120985895e-05
-7.517585454e-06
2.157858752e-05
-7.148828969e-06
2.192843766e-05
-6.79408014e-06
2.226021642e-05
-6.453344135e-06
2.257471348e-05
-6.126524743e-06
2.287269443e-05
-5.813396582e-06
-5.51361922e-06
2.315488801e-05
9.213624069e-08
-1.948411742e-06
3.499842322e-07
-5.347894141e-06
7.457784853e-07
-8.098066141e-06
1.254315749e-06
-1.03012497e-05
1.853566594e-06
-1.204582818e-05
2.524662216e-06
-1.340803191e-05
3.251626123e-06
-1.445174916e-05
4.021023138e-06
-1.52304174e-05
4.821600484e-06
-1.578845717e-05
5.643989936e-06
-1.616292803e-05
6.480369e-06
-1.63844461e-05
7.324045225e-06
-1.647767634e-05
8.169085772e-06
-1.64621442e-05
9.010100362e-06
-1.635346604e-05
9.842187393e-06
-1.616464869e-05
1.066098027e-05
-1.590711013e-05
1.146271931e-05
-1.559129656e-05
1.224429907e-05
-1.522694974e-05
1.300327204e-05
-1.482315232e-05
1.373781131e-05
-1.43882726e-05
1.444664522e-05
-1.392989336e-05
1.512897799e-05
-1.34547637e-05
1.578440792e-05
-1.2968789e-05
1.641285086e-05
-1.247705708e-05
1.70144729e-05
-1.198388903e-05
1.758963373e-05
-1.149290831e-05
1.813884021e-05
-1.100711387e-05
1.866270912e-05
-1.05289572e-05
1.916193788e-05
-1.006041433e-05
1.963728148e-05
-9.60305077e-06
2.008953447e-05
-9.158083693e-06
2.051951674e-05
-8.72643223e-06
2.092806212e-05
-8.30876375e-06
2.131600959e-05
-7.905532942e-06
2.168419585e-05
-7.517015255e-06
2.203344919e-05
-7.143333584e-06
2.236458397e-05
-6.784479099e-06
2.267839563e-05
-6.440336558e-06
2.297565364e-05
-6.110654681e-06
-5.795053346e-06
2.325708776e-05
9.269488587e-08
-2.041106632e-06
3.519605447e-07
-5.607159822e-06
7.499204765e-07
-8.496026116e-06
1.261342748e-06
-1.081267204e-05
1.864159821e-06
-1.264864538e-05
2.539444561e-06
-1.408331683e-05
3.27114856e-06
-1.518345337e-05
4.045760052e-06
-1.600502906e-05
4.851952607e-06
-1.659464984e-05