/*--------------------------------*- C++ -*----------------------------------*\
| =========                 |                                                 |
| \\      /  F ield         | foam-extend: Open Source CFD                    |
|  \\    /   O peration     | Version:     3.2                                |
|   \\  /    A nd           | Web:         http://www.foam-extend.org         |
|    \\/     M anipulation  | For copyright notice see file Copyright         |
\*---------------------------------------------------------------------------*/
FoamFile
{
    version     2.0;
    format      ascii;
    class       volScalarField;
    location    "0.12";
    object      phiActual;
}
// * * * * * * * * * * * * * * * * * * * * * * * * * * * * * * * * * * * * * //

dimensions      [0 2 -2 0 0 0 0];

internalField   nonuniform List<scalar> 
18000
(
0.06681183987
0.06200965916
0.05935781888
0.0579522102
0.0575371114
0.05790946925
0.05893931003
0.06052293933
0.06257791574
0.06503849894
0.0678512441
0.07097139836
0.07436022906
0.07798316585
0.08180857282
0.0858069799
0.08995063297
0.09421325549
0.09856994325
0.1029971377
0.1074726409
0.1119756483
0.1164867818
0.1209881171
0.1254631969
0.1298970292
0.1342760682
0.1385881784
0.1428225816
0.1469697894
0.1510215251
0.1549706385
0.1588110287
0.1625376045
0.1661463413
0.1696345391
0.1730014694
0.1762499156
0.1793950918
0.1825891752
0.1184873849
0.1167317421
0.1166484205
0.1175350541
0.1190811816
0.1211010779
0.1234953037
0.1262027852
0.1291830421
0.1324076847
0.1358554746
0.1395093591
0.1433546069
0.1473776344
0.1515652682
0.1559042881
0.1603811564
0.1649818776
0.1696919512
0.1744963942
0.1793798162
0.1843265326
0.1893207051
0.1943464979
0.1993882413
0.2044305948
0.2094587013
0.2144583303
0.2194160032
0.2243190995
0.229155944
0.2339158736
0.2385892863
0.2431676793
0.2476436841
0.252011125
0.2562652594
0.2604049719
0.2644593507
0.2687952518
0.1374477339
0.1366842418
0.1370277233
0.1379705928
0.1392831919
0.1408383708
0.1425682158
0.1444296671
0.1463933367
0.1484378004
0.1505465873
0.1527065715
0.1549069022
0.1571383523
0.1593929087
0.1616634955
0.1639437784
0.1662280198
0.1685109685
0.1707877741
0.173053921
0.1753051786
0.1775375651
0.1797473225
0.1819309021
0.1840849572
0.1862063417
0.1882921138
0.1903395418
0.1923461118
0.1943095364
0.1962277618
0.1980989756
0.1999216127
0.2016943653
0.2034162247
0.2050867751
0.2067084465
0.2083060487
0.2100717929
0.1475617849
0.1471948394
0.147683249
0.1486435015
0.1498901724
0.1513204355
0.1528763751
0.1545197491
0.1562234842
0.1579672604
0.1597351973
0.1615145338
0.1632948118
0.1650673537
0.1668249144
0.1685614365
0.1702718702
0.1719520286
0.1735984676
0.175208384
0.1767795266
0.1783101192
0.1797987926
0.1812445269
0.1826466006
0.1840045479
0.1853181225
0.1865872662
0.1878120837
0.1889928203
0.1901298442
0.1912236319
0.1922747591
0.1932839015
0.1942518666
0.1951797396
0.1960695566
0.1969273435
0.1977794874
0.1987426858
0.1539278177
0.1538082422
0.1544153978
0.1554395075
0.1567217055
0.1581715069
0.1597348335
0.1613745367
0.1630635154
0.16478103
0.1665107191
0.1682394143
0.1699563882
0.1716528552
0.1733216248
0.1749568493
0.1765538291
0.178108855
0.1796190728
0.1810823655
0.1824972481
0.1838627738
0.1851784507
0.1864441677
0.1876601304
0.1888268045
0.1899448675
0.1910151672
0.1920386866
0.1930165149
0.1939498237
0.1948398506
0.1956878945
0.196495337
0.1972637404
0.1979951778
0.1986933872
0.19936751
0.2000464837
0.200818897
0.1583326537
0.1584186013
0.159161518
0.1602956649
0.1616790281
0.1632279027
0.1648893541
0.1666256735
0.1684086242
0.1702162435
0.1720310607
0.1738389833
0.1756285642
0.1773904957
0.1791172475
0.1808027951
0.1824424052
0.1840324578
0.1855702929
0.1870540733
0.1884826632
0.1898555174
0.1911725842
0.1924342179
0.1936411033
0.1947941891
0.195894632
0.196943748
0.1979429726
0.1988938282
0.1997978996
0.2006568219
0.2014722893
0.2022461158
0.2029804316
0.2036782343
0.2043449914
0.2049927968
0.2056531993
0.2064029752
0.1614893961
0.1617606349
0.1626554048
0.1639318909
0.1654582441
0.1671540012
0.1689657097
0.1708540987
0.1727891155
0.1747470691
0.1767089779
0.178659495
0.180586172
0.1824789363
0.1843297053
0.1861320903
0.1878811583
0.1895732305
0.1912057062
0.1927769052
0.1942859258
0.1957325166
0.1971169632
0.1984399864
0.1997026554
0.2009063109
0.2020525014
0.2031429288
0.2041794035
0.20516381
0.2060980835
0.206984204
0.207824226
0.2086203874
0.2093754141
0.2100932798
0.2107811542
0.2114537322
0.2121447857
0.2129250417
0.1637750329
0.1642166344
0.165272987
0.1667128478
0.1684095779
0.1702833568
0.1722789497
0.1743547456
0.1764783379
0.1786239035
0.1807706323
0.1829016657
0.1850033456
0.1870646659
0.1890768577
0.1910330651
0.1929280774
0.1947581011
0.1965205566
0.1982138954
0.1998374347
0.2013912087
0.2028758356
0.2042924012
0.2056423581
0.206927439
0.2081495837
0.209310879
0.21041351
0.2114597233
0.2124518065
0.2133920911
0.2142830066
0.2151272412
0.2159281527
0.2166907104
0.2174237013
0.2181441348
0.2188878265
0.2197224761
0.165415654
0.1660125879
0.1672334366
0.1688486688
0.170732946
0.1728049707
0.175006624
0.1772932466
0.1796295729
0.1819872639
0.1843433789
0.1866793079
0.1889799944
0.1912333546
0.1934298293
0.1955620249
0.1976244134
0.1996130708
0.2015254417
0.2033601265
0.2051166877
0.2067954761
0.2083974771
0.2099241757
0.2113774408
0.2127594276
0.2140724953
0.2153191412
0.2165019478
0.2176235453
0.2186865941
0.2196937986
0.2206479863
0.2215523206
0.2224108094
0.2232294063
0.2240184277
0.2247970251
0.2256031338
0.2265034179
0.1665708631
0.1673075008
0.1686905775
0.1704866
0.1725684248
0.1748515005
0.177273828
0.1797870239
0.1823524655
0.1849389124
0.1875209896
0.1900780963
0.1925935948
0.1950541905
0.1974494454
0.1997713802
0.2020141349
0.2041736668
0.2062474767
0.208234359
0.2101341747
0.2119476478
0.2136761866
0.2153217285
0.2168866078
0.2183734459
0.2197850603
0.2211243919
0.2223944494
0.2235982715
0.2247389134
0.225819473
0.2268431947
0.227813733
0.2287357524
0.2296161734
0.2304667848
0.231308828
0.2321825955
0.233155323
0.1673640441
0.1682247827
0.1697644545
0.1717421618
0.1740265327
0.1765282807
0.1791806256
0.1819308133
0.1847363706
0.1875627669
0.1903818833
0.1931708862
0.1959113743
0.198588716
0.2011915188
0.2037111866
0.2061415332
0.2084784315
0.210719493
0.2128637722
0.2149114999
0.2168638449
0.2187227063
0.2204905353
0.2221701861
0.2237647922
0.2252776674
0.2267122272
0.2280719312
0.2293602457
0.2305806362
0.2317366057
0.2328318252
0.2338704466
0.2348577906
0.2358017359
0.2367155337
0.2376225761
0.2385659105
0.2396148655
0.1678951403
0.168865458
0.1705545584
0.1727122091
0.1752009909
0.1779256811
0.18081392
0.183807976
0.1868610448
0.1899349183
0.1929984238
0.1960262533
0.198998065
0.2018977738
0.2047129737
0.2074344422
0.2100556966
0.2125725855
0.214982909
0.2172860696
0.2194827573
0.2215746706
0.2235642767
0.2254546079
0.227249094
0.228951426
0.2305654487
0.2320950779
0.2335442417
0.2349168459
0.2362167727
0.2374479341
0.2386144293
0.2397209077
0.2407733466
0.2417805882
0.2427573803
0.2437294141
0.2447430064
0.2458711518
0.1682445806
0.1693118883
0.171143189
0.1734779407
0.1761713765
0.1791213928
0.1822493586
0.1854920036
0.1887977304
0.1921242736
0.1954370993
0.1987081882
0.2019150892
0.2050401636
0.208069954
0.2109946281
0.2138074665
0.216504381
0.2190834646
0.2215445766
0.2238889712
0.2261189727
0.2282376986
0.23024883
0.2321564248
0.2339647697
0.235678266
0.2373013441
0.2388384058
0.2402937943
0.2416718021
0.2429767403
0.2442131263
0.2453861
0.2465022967
0.2475715465
0.248610177
0.249646422
0.2507305335
0.2519409538
0.1684748322
0.1696289154
0.1715961069
0.1741051244
0.177002968
0.1801799289
0.1835505105
0.1870453874
0.1906077267
0.1941908335
0.1977565107
0.2012737966
0.2047179757
0.2080697759
0.21131468
0.2144422969
0.2174457645
0.2203211799
0.2230670617
0.2256838578
0.2281735077
0.2305390659
0.2327843857
0.234913862
0.2369322269
0.238844391
0.2406553252
0.2423699747
0.2439932056
0.2455297814
0.2469843827
0.2483616968
0.2496666379
0.2509048232
0.252083551
0.2532136842
0.2543132633
0.2554134051
0.2565691303
0.257866405
0.1686319437
0.1698649722
0.1719631288
0.1746442308
0.1777464672
0.1811519717
0.1847678666
0.1885182912
0.1923407488
0.1961837475
0.2000051273
0.2037707605
0.2074535278
0.2110324714
0.2144920421
0.2178213824
0.2210136248
0.2240652116
0.2269752521
0.2297449376
0.232377029
0.2348754219
0.23724479
0.239490301
0.241617396
0.2436316238
0.2455385211
0.2473435306
0.2490519537
0.2506689381
0.2521995128
0.2536487004
0.2550217774
0.2563248175
0.2575657909
0.258756662
0.2599173765
0.2610823908
0.2623125379
0.2637037696
0.1687479319
0.1700541647
0.1722798044
0.1751317198
0.1784389223
0.1820749575
0.1859391073
0.1899485173
0.1940346038
0.198140709
0.2022204088
0.2062361922
0.2101584162
0.2139644189
0.2176376919
0.2211670541
0.22454582
0.2277709811
0.2308424364
0.2337622998
0.2365343019
0.2391632945
0.2416548527
0.2440149654
0.2462498032
0.2483655496
0.2503682842
0.2522639087
0.2540581102
0.2557563636
0.2573639859
0.2588862774
0.2603288275
0.2616981387
0.2630028677
0.2642561779
0.26548018
0.2667132605
0.2680233533
0.2695193006
0.1688437547
0.1702191021
0.1725699964
0.1755923495
0.1791057646
0.1829748481
0.1870906143
0.1913627653
0.1957162026
0.2000887239
0.2044293344
0.2086969287
0.2128592439
0.2168919372
0.2207776687
0.2245051378
0.2280680848
0.231464303
0.2346947165
0.2377625629
0.2406727019
0.2434310563
0.2460441747
0.248518902
0.2508621406
0.2530806843
0.2551811103
0.2571697175
0.2590525061
0.2608351983
0.2625233173
0.2641223631
0.2656381743
0.2670776474
0.268450148
0.2697701705
0.2710623302
0.2723696928
0.2737688643
0.2753849728
0.1689323168
0.1703738919
0.1728487709
0.1760419163
0.1797633798
0.1838685227
0.1882396795
0.1927786555
0.197403396
0.2020457605
0.2066498675
0.2111708134
0.2155736492
0.2198324262
0.2239291679
0.2278527285
0.2315975828
0.2351626305
0.2385500917
0.241764549
0.2448121567
0.2477000185
0.2504357159
0.2530269664
0.2554813852
0.257806329
0.260008803
0.2620954182
0.2640723907
0.2659455873
0.2677206334
0.2694031317
0.2709990913
0.272515762
0.2739632519
0.2753575585
0.2767262353
0.2781179548
0.2796198818
0.2813773359
0.1690210525
0.170526786
0.1731250323
0.1764898341
0.1804216008
0.184766169
0.1893967835
0.1942068867
0.1991070071
0.2040226527
0.2088927292
0.2136683407
0.218311825
0.2227957674
0.2271018291
0.2312193745
0.2351439932
0.2388760483
0.2424193611
0.2457800959
0.2489658669
0.2519850581
0.2548463263
0.2575582566
0.2601291342
0.2625668074
0.2648786166
0.2670713758
0.2691513978
0.2711245684
0.2729964906
0.2747727541
0.2764594459
0.2780641243
0.2795976872
0.2810778553
0.2825356586
0.2840265031
0.2856503333
0.287577068
0.1691138786
0.1706822205
0.1734036034
0.1769412112
0.1810857575
0.185673287
0.1905675395
0.1956531125
0.2008326344
0.206024826
0.2111630439
0.2161942233
0.2210780109
0.2257857452
0.2302990935
0.2346083767
0.2387107542
0.2426084628
0.246307258
0.2498151307
0.253141314
0.2562955547
0.2592876055
0.26212689
0.2648222979
0.2673820752
0.2698137836
0.272124311
0.2743199283
0.2764063965
0.2783891534
0.280273644
0.2820659284
0.2837738274
0.2854090931
0.2869914425
0.2885560334
0.2901663413
0.2919376453
0.2940693088
0.169212529
0.1708422333
0.1736866951
0.1773983456
0.1817581748
0.1865921752
0.1917541585
0.1971193769
0.2025820514
0.2080536584
0.2134616623
0.218748676
0.2238717416
0.2288012652
0.2335193958
0.2380179568
0.2422962087
0.2463587196
0.2502135329
0.2538707097
0.2573412455
0.2606363102
0.2637667477
0.2667427677
0.2695737777
0.2722683104
0.2748340193
0.2772777246
0.2796055037
0.2818228365
0.2839348401
0.2859466708
0.2878642499
0.2896956142
0.2914534552
0.2931598143
0.2948547447
0.2966113314
0.2985630438
0.3009438273
0.1693173978
0.1710073707
0.1739748646
0.1778617138
0.1824391801
0.1875229465
0.1929564654
0.1986051256
0.2043542109
0.2101074753
0.2157861448
0.2213283913
0.2266888177
0.2318373235
0.2367571352
0.241442229
0.2458945712
0.2501215576
0.2541338815
0.2579439055
0.261564506
0.2650083084
0.2682872171
0.2714121556
0.2743929476
0.2772382924
0.2799558018
0.2825520832
0.2850328669
0.2874031915
0.2896676931
0.29183109
0.2938990485
0.2958797799
0.2977870212
0.2996455206
0.3015011019
0.3034381773
0.3056114783
0.3082947015
0.1694280437
0.1711772395
0.1742676075
0.1783305956
0.1831277507
0.1884641932
0.1941725776
0.200107895
0.2061459426
0.2121822564
0.2181314798
0.2239272704
0.229522052
0.2348857715
0.2400034585
0.244871997
0.2494967291
0.2538883993
0.2580607064
0.2620285187
0.2658066791
0.2694092687
0.2728491985
0.276138019
0.2792858655
0.282301488
0.285192332
0.2879646593
0.2906237101
0.2931739307
0.2956193209
0.297964014
0.3002133075
0.3023755529
0.3044656595
0.3065115121
0.3085656659
0.3107256977
0.3131707385
0.3162190186
0.1695434872
0.1713508372
0.1745637209
0.1788034638
0.1838219291
0.1894134241
0.1953993617
0.2016237896
0.2079524513
0.2142721549
0.2204906266
0.2265369925
0.2323618692
0.2379359462
0.2432469178
0.24829543
0.253090922
0.257648014
0.2619837394
0.266115636
0.2700605562
0.2738340046
0.2774498265
0.2809201101
0.2842552093
0.2874638306
0.2905531569
0.2935290005
0.2963959967
0.2991578707
0.3018178483
0.3043793429
0.3068471781
0.3092298207
0.3115434975
0.3138196916
0.3161186969
0.3185531153
0.3213294408
0.3248142272
0.1696623931
0.1715267573
0.1748615337
0.1792782399
0.1845191018
0.1903673676
0.1966327618
0.2031478344
0.2097676962
0.2163699081
0.2228549582
0.2291474945
0.2351968233
0.240975225
0.2464740556
0.2516986657
0.2566633425
0.2613870906
0.2658905598
0.2701940644
0.2743164609
0.2782746142
0.2820832231
0.2857548377
0.2892999678
0.2927272255
0.2960434838
0.2992540512
0.3023628885
0.3053729104
0.3082864603
0.3111061183
0.3138361438
0.3164851061
0.3190707045
0.3216284912
0.3242274914
0.32699707
0.3301735373
0.3341737479
0.169783194
0.1717033299
0.1751590672
0.1797524766
0.185216206
0.1913222025
0.1978680563
0.2046742617
0.2115847104
0.218467191
0.2252146558
0.231747407
0.2380140776
0.2439895461
0.2496699567
0.2550663751
0.2601986901
0.2650907525
0.269767039
0.2742506762
0.2785624663
0.2827205468
0.2867403938
0.2906349759
0.294414949
0.2980888464
0.3016632543
0.305142994
0.3085313454
0.3118303759
0.3150414801
0.3181663209
0.3212085226
0.3241767539
0.3270903408
0.3299893482
0.332952425
0.3361271176
0.3397810517
0.3443805292
0.1699041831
0.1718787279
0.1754541597
0.1802235022
0.1859098962
0.1922737509
0.1991000794
0.2061967637
0.2133958884
0.220554945
0.2275590797
0.2343244729
0.2407998705
0.2469639159
0.2528187844
0.2583823078
0.2636806988
0.2687430362
0.2735977386
0.2782706974
0.2827845482
0.2871585971
0.2914090441
0.2955492857
0.299590191
0.3035403174
0.3074060809
0.3111919186
0.3149005014
0.318533077
0.3220900742
0.3255721893
0.3289823607
0.3323293564
0.3356342629
0.3389420255
0.3423415954
0.3459995504
0.3502148363
0.3554983641
0.1700235927
0.1720510557
0.1757445695
0.1806885438
0.1865966903
0.1932176499
0.200323422
0.2077087267
0.215193259
0.2226236931
0.2298771332
0.2368659612
0.2435399783
0.2498829151
0.2559043139
0.26162983
0.2670926509
0.2723273517
0.277366289
0.2822379769
0.2869667215
0.2915728909
0.2960733955
0.3004821448
0.3048103843
0.3090669065
0.3132581804
0.3173884619
0.3214599704
0.325473231
0.3294277402
0.333323211
0.3371618583
0.3409525406
0.3447181856
0.3485088458
0.3524240994
0.3566495393
0.3615133447
0.3675610549
0.1701396617
0.1722184263
0.1760280663
0.1811448349
0.1872730999
0.1941495076
0.2015326183
0.2092034535
0.2169687473
0.2246638476
0.2321576196
0.2393590768
0.2462201763
0.2527312016
0.2589104616
0.2647924569
0.2704178864
0.2758269408
0.2810557705
0.2861352714
0.2910912127
0.2959449291
0.3007140882
0.3054132901
0.3100544321
0.3146468716
0.3191974674
0.3237105992
0.3281882763
0.332630462
0.3370357971
0.3414030161
0.3457335703
0.3500363636
0.354336151
0.3586880922
0.3632021966
0.3680818685
0.3736797537
0.380559945
0.1702506949
0.1723790268
0.1763025091
0.1815897123
0.187935747
0.195065047
0.2027223203
0.2106743728
0.2187144259
0.2266660081
0.2343895918
0.2417913638
0.2488266939
0.255494008
0.2618218088
0.2678543801
0.2736403104
0.2792253432
0.2846491222
0.2899445836
0.2951387184
0.3002537612
0.3053082578
0.3103177815
0.3152952762
0.3202511118
0.3251929819
0.3301257856
0.3350516333
0.3399701332
0.3448791695
0.3497764998
0.3546627407
0.3595467215
0.3644548535
0.3694470749
0.3746429281
0.3802609263
0.386670263
0.3944309436
0.1703551134
0.1725311764
0.1765659148
0.1820206984
0.188581469
0.1959602351
0.2038874574
0.2121152353
0.2204227526
0.2286212459
0.2365626888
0.244151095
0.2513466545
0.2581576233
0.264624109
0.2708009834
0.2767448987
0.2825068779
0.2881295916
0.29364758
0.2990887948
0.3044763459
0.3098298638
0.3151662858
0.3205001092
0.3258432681
0.331204824
0.3365906552
0.342003324
0.3474423045
0.3529048103
0.3583875837
0.3638902595
0.3694213425
0.3750084953
0.3807156616
0.3866701412
0.3931011129
0.4003830274
0.4090428949
0.170451497
0.1726733722
0.1768165135
0.1824355724
0.1892074073
0.1968313972
0.2050233805
0.2135202923
0.2220867885
0.2305213687
0.2386674491
0.2464276376
0.253768489
0.2607098465
0.2673047689
0.2736193355
0.2797181927
0.2856571383
0.2914812358
0.2972261094
0.3029204068
0.3085881429
0.3142503281
0.3199257524
0.3256310659
0.331380394
0.3371847485
0.3430514704
0.34898392
0.3549816246
0.3610411521
0.3671580982
0.3733308362
0.3795670972
0.3858950705
0.3923813751
0.3991582826
0.406459355
0.4146498218
0.4241898149
0.1705386165
0.1728043261
0.1770527938
0.1828324269
0.1898110821
0.197675313
0.2061259857
0.2148844523
0.2237003932
0.2323591571
0.2406955937
0.2486117815
0.2560823088
0.2631403952
0.2698532833
0.2762986449
0.2825487728
0.2886634926
0.2946894669
0.30066282
0.3066126434
0.3125639497
0.3185395043
0.3245605171
0.3306464474
0.3368142686
0.3430775251
0.3494454725
0.3559225522
0.362508441
0.3691989643
0.3759882861
0.3828730385
0.3898594581
0.3969751342
0.4042873915
0.4119296339
0.4201318178
0.4292329831
0.4395898766
0.1706154578
0.1729229916
0.1772735346
0.1832097101
0.1903904497
0.1984892946
0.2071918167
0.2162034123
0.2252583893
0.2341285667
0.2426402672
0.2506960204
0.2582802222
0.2654412536
0.2722616084
0.278830657
0.285227689
0.2915155694
0.2977416263
0.3039418595
0.3101455833
0.3163789637
0.3226669624
0.329033818
0.3355024672
0.3420933625
0.3488231014
0.35570321
0.3627393679
0.3699313416
0.377273933
0.384759371
0.3923818042
0.4001449191
0.4080741206
0.4162348127
0.4247567371
0.4338569712
0.4438301552
0.4548937461
0.1706812372
0.1730285796
0.1774778259
0.1835662549
0.1909439427
0.1992712426
0.208218142
0.2174737598
0.226756692
0.2358248874
0.244496227
0.2526747701
0.2603565799
0.2676069398
0.274524451
0.2812099717
0.2877488265
0.2942057039
0.3006275549
0.3070496201
0.3135012622
0.3200100162
0.3266035197
0.3333096509
0.3401554479
0.3471653863
0.3543595112
0.3617518157
0.3693491855
0.3771512017
0.3851511212
0.3933384646
0.401703846
0.4102469779
0.4189890399
0.4279903123
0.4373714012
0.4473266744
0.4580886119
0.4697037316
0.1707354078
0.1731205658
0.1776650781
0.1839012924
0.191470493
0.200019682
0.209203006
0.2186930424
0.2281923979
0.2374448524
0.2462599722
0.2545445139
0.2623081342
0.2696346782
0.2766394556
0.2834342597
0.2901091776
0.2967293096
0.303340118
0.3099754731
0.3166646721
0.3234368841
0.3303229101
0.3373548329
0.3445643167
0.3519802588
0.3596263623
0.3675190687
0.3756661994
0.3840666163
0.3927112329
0.4015857939
0.4106760099
0.4199758481
0.4294998424
0.439299569
0.4494808018
0.460205771
0.4716293739
0.4836032258
0.170777659
0.173198689
0.1778350198
0.184214453
0.1919695374
0.2007337748
0.2101452525
0.2198598021
0.2295638319
0.2389866944
0.2479298053
0.2563038672
0.2641341028
0.2715244623
0.2786072741
0.285504357
0.2923089973
0.2990851427
0.305875636
0.3127124255
0.3196247007
0.326643564
0.3338034419
0.3411410956
0.3486931922
0.3564932555
0.3645686305
0.3729379391
0.3816094025
0.3905803562
0.3998382942
0.4093638391
0.4191361542
0.4291414285
0.4393849174
0.4499058492
0.4607898258
0.4721589538
0.4840791914
0.4961935008
0.1708079087
0.1732629414
0.1779876873
0.1845057541
0.1924410067
0.2014133128
0.2110445209
0.2209735755
0.2308705477
0.2404501439
0.2495058232
0.257953555
0.2658361311
0.2732790028
0.2804315086
0.2874242256
0.2943518193
0.3012754253
0.3082341728
0.3152576295
0.3223749131
0.3296193774
0.3370294777
0.3446469995
0.352513806
0.3606680302
0.3691403972
0.3779511849
0.38710822
0.3966062527
0.406428045
0.4165475395
0.4269355352
0.4375683054
0.4484392235
0.4595718482
0.4710272333
0.4828817305
0.4951062698
0.5071327207
0.1708262899
0.1733135528
0.178123404
0.1847755769
0.1928852994
0.2020586889
0.2119012153
0.2220348588
0.2321132851
0.2418363721
0.2509898376
0.2594963047
0.2674181534
0.2749035598
0.2821185254
0.2892007736
0.2962443224
0.3033058063
0.3104196409
0.3176126796
0.3249140858
0.332359782
0.3399925725
0.34785946
0.3560074969
0.3644791821
0.3733081234
0.3825154981
0.3921077288
0.4020757325
0.4123960761
0.4230343669
0.4339512036
0.4451109084
0.4564926828
0.4681018031
0.4799718725
0.4921308006
0.5044540861
0.5161708638
0.1708331325
0.1733509682
0.1782427536
0.1850246335
0.1933032431
0.2026708512
0.2127164501
0.223045041
0.2332938855
0.2431478805
0.2523852301
0.2609366583
0.2688861607
0.2764056678
0.2836771491
0.2908435425
0.2979960456
0.3051851472
0.3124396981
0.3197836539
0.3272464194
0.3348667886
0.3426921339
0.3507747063
0.3591665461
0.3679140691
0.3770530712
0.3866046977
0.3965728172
0.4069431726
0.4176846423
0.4287528958
0.4400966582
0.4516665917
0.463426021
0.4753603452
0.48747459
0.4997486237
0.5119673847
0.5231745277
0.1708289414
0.1733758227
0.1783465479
0.1852539264
0.1936960437
0.2032512416
0.213491974
0.2240063095
0.2344151709
0.2443883442
0.2536967496
0.2622807165
0.2702478884
0.2777947702
0.2851182535
0.2923642756
0.2996189659
0.3069251398
0.3143054307
0.3217808781
0.3293813976
0.3371489285
0.3451355227
0.3533985582
0.3619946921
0.3709736471
0.3803725766
0.3902115669
0.4004907396
0.4111893473
0.4222671929
0.4336686139
0.4453291319
0.4571845641
0.469181438
0.4812848649
0.4934719743
0.5056777702
0.5176056826
0.5281373191
0.1708143721
0.1733889123
0.1784357901
0.185464702
0.1940652277
0.2038017227
0.2142300786
0.2249215328
0.2354807938
0.2455624187
0.2549302643
0.2635358302
0.2715124443
0.2790817861
0.2864542753
0.2937763967
0.3011269644
0.3085397796
0.3160308409
0.3236184267
0.3313332948
0.3392207658
0.3473375802
0.3557459904
0.3645067721
0.3736722432
0.3832800239
0.3933481094
0.4038717431
0.4148225109
0.4261499877
0.4377861306
0.4496524097
0.4616692638
0.4737663787
0.4858893401
0.497989639
0.5099626886
0.5214421483
0.5311742965
0.170790205
0.1733911638
0.1785116367
0.1856584017
0.1944125787
0.2043244963
0.2149334938
0.2257941279
0.2364950665
0.24667552
0.2560924842
0.2647102571
0.2726899006
0.2802786376
0.2876986833
0.2950944341
0.302535219
0.3100447318
0.3176321802
0.3253134029
0.3331203811
0.3411020103
0.3493196392
0.3578400451
0.3667275488
0.3760363159
0.3858035615
0.3960442389
0.4067477366
0.4178770348
0.4293706566
0.4411475655
0.4531148837
0.4651778267
0.4772500327
0.4892593219
0.5011349485
0.5127392212
0.5236488414
0.5325021424
0.1707573193
0.1733836041
0.1785753584
0.1858366107
0.1947400712
0.2048220184
0.215605278
0.2266279174
0.2374627781
0.2477335921
0.2571906687
0.2658128071
0.2737908749
0.2813977681
0.2888654377
0.2963334286
0.3038595664
0.3114566412
0.3191271832
0.326885066
0.3347639078
0.3428163306
0.3511081414
0.3597102366
0.3686898874
0.3781023898
0.3879837689
0.3983451376
0.4091692742
0.4204099102
0.4319940695
0.4438275667
0.4558034238
0.4678124124
0.4797536061
0.4915395277
0.5030812126
0.5142146518
0.5244719927
0.5324094726
0.1707166673
0.1733673306
0.1786283019
0.1860010086
0.1950498055
0.2052969135
0.2162487063
0.2274269864
0.2383890099
0.2487428734
0.2582323375
0.266852495
0.2748261269
0.2824516818
0.2899684735
0.2975083653
0.3051158808
0.3127924397
0.3205342715
0.3283538884
0.3362869766
0.3443899965
0.3527330207
0.3613906435
0.3704325229
0.3799144514
0.3898706198
0.4003076985
0.4112013542
0.422495737
0.4341062904
0.4459259414
0.457834318
0.4697090075
0.4814364643
0.4929167405
0.5040467625
0.5146425043
0.5242023662
0.5312230091
0.1706692502
0.173343483
0.1786718545
0.1861533223
0.1953439449
0.2057518918
0.2168671628
0.228195542
0.2392789579
0.2497096742
0.2592249985
0.2678382195
0.2758061916
0.2834525302
0.2910212399
0.2986336662
0.3063195103
0.3140687015
0.3218717891
0.3297406266
0.3377134005
0.3458504907
0.3542260258
0.362917902
0.371997675
0.3815211247
0.391520133
0.4019965379
0.4129186417
0.4242209614
0.435807583
0.4475591276
0.4593428516
0.4710247008
0.4824806512
0.4936011188
0.5042726647
0.5142964707
0.5231455938
0.5292749966
0.1706160958
0.1733132178
0.1787074114
0.1862952826
0.1956246588
0.2061896735
0.2174640407
0.228937785
0.2401377692
0.2506401745
0.260175906
0.2687784854
0.2767410678
0.2844117649
0.292036316
0.2997227668
0.3074848026
0.3153010894
0.3231573266
0.3310654787
0.3390666537
0.347225211
0.3556191373
0.3643292942
0.3734287543
0.3829729239
0.392991081
0.4034800405
0.4144006987
0.4256781007
0.4372054045
0.4488516912
0.4604730104
0.4719252734
0.4830760443
0.4938086227
0.5040022133
0.5134469702
0.5215962181
0.5268758616
0.1705582387
0.1732776854
0.178736347
0.1864285867
0.1958940716
0.206612921
0.2180426534
0.2296577951
0.2409703993
0.2515402511
0.2610918583
0.2696811772
0.2776399725
0.2853398696
0.2930251185
0.3007877971
0.3086247435
0.3165039187
0.3244071723
0.3323473825
0.3403689799
0.3485403555
0.3569431945
0.3656610757
0.3747683379
0.3843198108
0.3943420416
0.4048267974
0.4157276753
0.426960532
0.4384081108
0.4499287504
0.4613684161
0.4725744365
0.4834077048
0.4937463363
0.5034641901
0.5123425152
0.5198177449
0.5242944273
0.1704967031
0.1732380117
0.1787599908
0.1865548658
0.1961542197
0.2070241812
0.2186061589
0.2303594352
0.2417814934
0.2524153377
0.2619790401
0.2705533911
0.2785111668
0.2862461753
0.2939977045
0.3018393684
0.3097507117
0.3176898512
0.3256359091
0.3336034827
0.3416407005
0.3498200451
0.3582268016
0.3669471287
0.3760565239
0.3856091906
0.3956289641
0.4061026544
0.4169767406
0.4281581928
0.439519806
0.4509098492
0.4621651003
0.4731254006
0.4836461736
0.4936014947
0.5028607571
0.5111968124
0.5180296553
0.5217462827
0.1704324888
0.1731952815
0.1787796081
0.1866756596
0.1964070165
0.2074258392
0.219157499
0.231046274
0.2425752943
0.25327032
0.2628429102
0.2714013251
0.2793618504
0.2871387554
0.2949626653
0.3028864629
0.3108723485
0.3188697171
0.3268561593
0.3348487724
0.3428997323
0.3510856963
0.3594955325
0.3682179686
0.3773296998
0.3868843972
0.3969033148
0.4073684587
0.4182193642
0.4293543295
0.4406364914
0.4519044447
0.4629862843
0.473714929
0.4839408391
0.4935343044
0.5023600053
0.510181495
0.516401012
0.5193893427
0.1703665592
0.1731505267
0.1787963846
0.1867923962
0.1966542256
0.2078200816
0.219699353
0.2317215293
0.2433555758
0.2541094647
0.2636881341
0.2722302231
0.2801981197
0.2880243906
0.2959270987
0.3039364113
0.3119975256
0.3200524487
0.3280784614
0.336095896
0.3441613018
0.3523556325
0.3607714204
0.3695000871
0.3786197113
0.3881836515
0.3982107903
0.4086784897
0.4195194306
0.4306232663
0.4418434656
0.4530089289
0.4639390381
0.4744596972
0.4844161295
0.4936741879
0.5020925758
0.5094235612
0.5150492718
0.5173246998
0.170299833
0.1731047173
0.178811416
0.1869063778
0.1968974414
0.2082088719
0.2202341045
0.2323880279
0.2441256005
0.2549363808
0.2645185552
0.2730443659
0.2810249778
0.2889085908
0.2968966443
0.3049949403
0.3131323909
0.3212451054
0.3293112575
0.3373550878
0.3454378274
0.3536449
0.3620726941
0.3708155916
0.3799533822
0.3895394417
0.399590538
0.410079504
0.4209320995
0.4320290784
0.4432138218
0.4543049832
0.4651125598
0.4754546147
0.4851700482
0.4941187632
0.5021513696
0.5090061626
0.5140425528
0.5156007422
0.1702331776
0.1730587549
0.1788257007
0.1870187715
0.1971380762
0.2085939325
0.220763821
0.233048183
0.2448880981
0.2557540059
0.2653371984
0.2738471001
0.2818463843
0.2897956588
0.2978755646
0.3060662703
0.3142814705
0.3224529649
0.3305609638
0.3386342169
0.3467389347
0.3549652494
0.3634137162
0.3721820885
0.3813523311
0.3909782622
0.4010748103
0.411610306
0.4225033
0.4336250282
0.4448078619
0.4558590335
0.4665777687
0.4767726844
0.4862744594
0.4949347385
0.5025932656
0.5089713981
0.5134037871
0.5142188879
0.1701674049
0.1730134692
0.178840136
0.1871306042
0.1973773531
0.2089767362
0.2212902426
0.2337039836
0.2456452598
0.256564614
0.2661462987
0.2746408932
0.2826653313
0.2906887793
0.2988668521
0.3071532424
0.315447805
0.3236796571
0.3318320971
0.3399389067
0.3480715711
0.3563252427
0.3648050794
0.3736127618
0.3828330269
0.3925206452
0.4026889783
0.4133017535
0.4242697488
0.4354536297
0.4466732588
0.4577225822
0.4683879008
0.4784659707
0.4877765445
0.4961599824
0.5034419402
0.509324054
0.5131155994
0.5131397699
0.1701032681
0.1729696158
0.1788555166
0.1872427601
0.1976163031
0.2093585019
0.2218147791
0.2343569936
0.2463987458
0.2573698381
0.2669473458
0.2754274069
0.2834839332
0.2915901186
0.2998723489
0.3082574569
0.3166330996
0.3249273193
0.3331274349
0.3412727045
0.3494401884
0.3577304515
0.366253819
0.3751166002
0.3844070342
0.3941814315
0.4044518395
0.4151771241
0.4262594038
0.4375472309
0.4488458216
0.459933224
0.4705798471
0.4805673344
0.489701
0.4978062369
0.5046911555
0.5100355722
0.5131251484
0.512289151
0.170041461
0.1729278758
0.1788725344
0.1873559814
0.1978557645
0.2097401948
0.2223385115
0.2350083578
0.2471496992
0.2581707003
0.2677411388
0.276207577
0.2843035182
0.2925009231
0.3008928622
0.3093794099
0.3178378729
0.3261967543
0.334448188
0.3426372756
0.3508469648
0.3591837125
0.3677637056
0.3766987329
0.3860813997
0.3959702222
0.4063761577
0.4172527708
0.4284922738
0.4399290209
0.4513507514
0.4625162026
0.473176062
0.4830927259
0.4920527211
0.4998621658
0.50630814
0.511047809
0.5133484751
0.5115631673
0.1699826161
0.172888856
0.1788917801
0.1874708691
0.1980963839
0.2101225284
0.2228621962
0.2356588104
0.2478987637
0.2589676469
0.2685278427
0.2769816936
0.2851247123
0.2934216049
0.3019282663
0.3105186122
0.3190615895
0.3274875775
0.3357941677
0.3440326006