/*--------------------------------*- C++ -*----------------------------------*\
| =========                 |                                                 |
| \\      /  F ield         | foam-extend: Open Source CFD                    |
|  \\    /   O peration     | Version:     3.2                                |
|   \\  /    A nd           | Web:         http://www.foam-extend.org         |
|    \\/     M anipulation  | For copyright notice see file Copyright         |
\*---------------------------------------------------------------------------*/
FoamFile
{
    version     2.0;
    format      ascii;
    class       volScalarField;
    location    "0.12";
    object      psiProd;
}
// * * * * * * * * * * * * * * * * * * * * * * * * * * * * * * * * * * * * * //

dimensions      [0 2 -3 0 0 0 0];

internalField   nonuniform List<scalar> 
18000
(
12.54695345
43.12592478
84.77553609
132.4585826
184.3641462
240.4626295
301.0722096
366.5937275
437.3930891
513.7504135
595.8432884
683.7434902
777.418787
876.7374914
981.475277
1091.324014
1205.90231
1324.76732
1447.427303
1573.354392
1701.997101
1832.79213
1965.175165
2098.59044
2232.498941
2366.385217
2499.762782
2632.178223
2763.21407
2892.490547
3019.666389
3144.438789
3266.542656
3385.749304
3501.864701
3614.727386
3724.206829
3830.218785
3933.076921
4037.789671
0.02293014795
0.0001204833188
0.03352805385
0.05721455265
0.03789543711
0.01900440567
0.09930039319
0.1890353535
0.2771774114
0.3558586911
0.4198769348
0.4660687368
0.492751214
0.4992800212
0.4857198839
0.4526088672
0.4007949927
0.3313257171
0.2453742768
0.1441906507
0.02906830714
0.09867933655
0.2377367207
0.3868006314
0.544592725
0.7098708694
0.8814397141
1.058160832
1.238962619
1.422850075
1.608914854
1.796346408
1.984446236
2.172648886
2.360555845
2.547992675
2.735107198
2.922567247
3.112523524
3.295638059
0.2676331161
0.3922313313
0.3422364702
0.297741191
0.2490206031
0.189855956
0.1178721765
0.03241143718
0.06655739155
0.1786510092
0.3032538903
0.439615296
0.5869072286
0.7442584749
0.9107745169
1.085549242
1.267672284
1.456234573
1.650333149
1.849076064
2.051587575
2.25701367
2.464527904
2.67333703
2.882685842
3.091861197
3.300195485
3.507069845
3.711916944
3.914223246
4.113531522
4.30944484
4.501634074
4.689853197
4.87397315
5.054042395
5.230422903
5.403743384
5.575537898
5.680728934
0.3639614966
0.7543093748
0.91965631
1.103253184
1.294758324
1.48654046
1.674314687
1.85583054
2.029701404
2.195194924
2.351992743
2.500048627
2.639493566
2.770573733
2.893608838
3.0089634
3.117026409
3.218196576
3.312871828
3.401441813
3.484282549
3.561752553
3.634190052
3.701911372
3.765210606
3.824360089
3.879611007
3.931193954
3.979319839
4.024181456
4.06595538
4.104804595
4.140885245
4.174364532
4.205451217
4.234474079
4.261940268
4.289471382
4.317520912
4.221047135
0.3433969063
0.8136277949
1.070922995
1.347506481
1.631028343
1.914069661
2.19249407
2.463944208
2.726831314
2.980191698
3.223484807
3.456477534
3.679161137
3.891692453
4.094349124
4.287493488
4.47154275
4.646944278
4.814155955
4.973631172
5.125807849
5.27110077
5.40989678
5.542552688
5.669395471
5.790723836
5.906810154
6.017902595
6.124227735
6.225993322
6.323390186
6.416592758
6.505758213
6.591027433
6.672519121
6.750386434
6.824738214
6.896962069
6.967952018
7.109724962
0.3035538303
0.7796993819
1.073682095
1.388636071
1.70966629
2.028979122
2.34245463
2.647639751
2.942865204
3.227096189
3.499742811
3.760554841
4.009543454
4.246922203
4.473057173
4.688422361
4.893559762
5.089044755
5.275457925
5.453363575
5.623294461
5.785741931
5.941150734
6.089917924
6.232394798
6.368890482
6.499676039
6.624989062
6.745038907
6.860011932
6.970076369
7.075389104
7.176107095
7.272410467
7.364528123
7.45288519
7.53808005
7.622519803
7.707697592
7.756985403
0.2669185753
0.7249415695
1.033621897
1.365251176
1.702849115
2.03808728
2.366735518
2.686186402
2.994698934
3.291204278
3.575115862
3.846225267
4.104625087
4.350647071
4.584804483
4.80773608
5.020153481
5.222794763
5.416386859
5.601617703
5.779117654
5.949449035
6.113102555
6.270499247
6.421996121
6.567893534
6.708443052
6.843855719
6.974310537
7.099961821
7.220944632
7.337380431
7.449384704
7.557084811
7.660635158
7.760372319
7.856772353
7.95215023
8.048923225
8.187277385
0.2370080828
0.6707263852
0.9845860685
1.323358737
1.668476048
2.011057491
2.346672667
2.672513846
2.986754015
3.288290175
3.576549682
3.851385156
4.112998248
4.361872938
4.598706053
4.824334708
5.039666043
5.245615329
5.443056919
5.632789609
5.815515636
5.991831388
6.162227577
6.327096412
6.486742946
6.641397958
6.791230985
6.936363321
7.076880461
7.212842836
7.344295244
7.471278359
7.593844431
7.712088704
7.826188474
7.936594744
8.044050567
8.151209929
8.261431939
8.381669366
0.2130764833
0.6224564221
0.9371722636
1.278628426
1.627060747
1.973067045
2.311964766
2.640725317
2.957428085
3.260935209
3.550696104
3.826644264
4.089123836
4.338815658
4.576649906
4.803709494
5.021135437
5.230044874
5.431468587
5.62630994
5.815323533
5.999110164
6.17812418
6.352689195
6.523018012
6.689233496
6.851388813
7.0094866
7.163495982
7.313366192
7.459037921
7.600456113
7.737585705
7.870442652
7.999137365
8.124071061
8.246007697
8.367608753
8.493302138
8.664523277
0.1938957274
0.5810323384
0.8946523207
1.236673351
1.586413948
1.933984093
2.274420215
2.604469327
2.922115985
3.226189244
3.51617079
3.792100398
4.05450805
4.304328485
4.542786705
4.771266735
4.991183878
5.203877479
5.410533609
5.612139175
5.809463789
6.003063401
6.19329929
6.380366186
6.564323853
6.745128181
6.922660115
7.096751815
7.267208767
7.433827056
7.596408029
7.754774693
7.908792234
8.058406701
8.203703954
8.345117281
8.483566557
8.621899891
8.765594505
8.95710214
0.1783666239
0.5459202931
0.8576733003
1.199326006
1.549471499
1.897760073
2.238934419
2.569525004
2.887426124
3.191439787
3.481096115
3.756577553
4.018659154
4.268604308
4.508009626
4.738625102
4.962183056
5.180260883
5.394189199
5.605005091
5.813443069
6.019953786
6.224740579
6.42780489
6.62899317
6.828040782
7.024611159
7.218329519
7.408809879
7.595675268
7.778574279
7.957198461
8.131303498
8.300749642
8.465569072
8.626181441
8.783591998
8.940799291
9.104444304
9.342717022
0.1656368518
0.5162379828
0.8259595025
1.166936086
1.517162136
1.865847673
2.207438766
2.538263145
2.856132625
3.159831169
3.448959692
3.723892167
3.985725392
4.23614385
4.477205124
4.711093934
4.939896659
5.165430702
5.389141147
5.612060101
5.834815259
6.057672
6.280594441
6.503313352
6.725391861
6.946284168
7.165385694
7.382074172
7.595740855
7.805812888
8.011771121
8.213168382
8.409652285
8.601009405
8.7872431
8.968802177
9.146835527
9.32459649
9.509962068
9.790930047
0.1550631812
0.4910887316
0.7989230225
1.139248923
1.489540672
1.838579322
2.180517232
2.511495845
2.82925397
3.132568916
3.421142001
3.695602539
3.957465669
4.208947809
4.452667434
4.691312062
4.927347487
5.162813241
5.399214766
5.637499677
5.87809552
6.120985472
6.365801829
6.611921748
6.858554907
7.104818379
7.349797806
7.592594892
7.832361285
8.068321242
8.299788611
8.526183731
8.747055507
8.962127242
9.171382921
9.375311989
9.575218197
9.77466504
9.982934011
10.31968402
0.1461651526
0.4696763485
0.7759131786
1.115784793
1.466288263
1.815780195
2.15812505
2.489294837
2.806965265
3.109920146
3.397999041
3.672167633
3.93447769
4.187806071
4.435438485
4.680625789
4.92621879
5.174433758
5.426752265
5.683929634
5.946076481
6.21277985
6.483237379
6.756385738
7.031012314
7.305846313
7.579629577
7.851168333
8.119367308
8.383250349
8.641974473
8.894843849
9.141330238
9.381120519
9.614212254
9.841179087
10.06353556
10.28525262
10.51719694
10.91470631
0.1385835133
0.4513313577
0.7563159819
1.096008886
1.44694741
1.797063173
2.139939644
2.471395454
2.789052736
3.091716481
3.379412047
3.653542451
3.916837787
4.17298006
4.426029849
4.679846728
4.937644277
5.201735921
5.4734609
5.753244991
6.040743275
6.335019573
6.634729295
6.93828436
7.243989532
7.550148193
7.855139967
8.157473218
8.455815856
8.749010642
9.036083426
9.316251839
9.588942394
9.853839017
10.11098859
10.3610918
10.60592961
10.84997915
11.10593906
11.57454709
0.1320487048
0.4355069568
0.7395921328
1.079409795
1.431037189
1.781977022
2.125538714
2.457402188
2.775144603
3.077608325
3.365063615
3.639474698
3.90441641
4.164534176
4.424765706
4.689600705
4.962556947
5.245924968
5.540745943
5.846949652
6.163578234
6.489037054
6.821333089
7.158278245
7.49764881
7.837302268
8.175256948
8.509740241
8.839211406
9.162367547
9.478142913
9.785710169
10.08449312
10.37421665
10.65502458
10.92780202
11.1946733
11.46074497
11.74083289
12.29013507
0.1263572152
0.4217634249
0.7252859147
1.065532307
1.418107515
1.770079466
2.114489983
2.446893435
2.764829312
3.067195349
3.354579679
3.629657794
3.897041274
4.162506937
4.431958491
4.710503615
5.001861054
5.308132905
5.629868179
5.966307622
6.315709769
6.675685586
7.043497114
7.41629836
7.791313533
8.165958693
8.537916593
8.905174026
9.266030887
9.61909218
9.963254946
10.29769991
10.62189906
10.935668
11.23929962
11.53392605
11.82210236
12.10970664
12.41401582
13.05691467
0.1213540699
0.4097495905
0.7130203956
1.053986388
1.407760399
1.760968879
2.106391785
2.439469669
2.757710125
3.060086519
3.347594508
3.623800589
3.894570868
4.166985919
4.447981429
4.743227043
5.056486765
5.389459616
5.741971014
6.112358079
6.497919646
6.895344978
7.301074086
7.711571636
8.123516098
8.533917039
8.940176045
9.340105082
9.73191519
10.11418956
10.48585477
10.84616109
11.194685
11.53138625
11.85676284
12.17226282
12.48097348
12.7897122
13.11861606
13.87073494
0.1169199158
0.3991849916
0.7024866767
1.044443941
1.399653353
1.754293139
2.100886336
2.434770233
2.753424542
3.055921535
3.343773994
3.621652517
3.89692061
4.178132376
4.473287627
4.788507428
5.127385886
5.490953613
5.878047376
6.285872379
6.710596689
7.147880694
7.593295798
8.042622028
8.492036029
8.938211524
9.378354916
9.810195235
10.23194531
10.64225109
11.0401443
11.42501065
11.79658835
12.15503364
12.50110472
12.83663661
13.16536103
13.49522884
13.84970286
14.7312584
0.1129615656
0.3898443457
0.6934314858
1.036630055
1.393493887
1.749746633
2.09765862
2.432473491
2.751645143
3.054371952
3.342817184
3.623005691
3.904064485
4.196179515
4.50840064
4.847124456
5.215494975
5.613559284
6.038873604
6.487280211
6.953663509
7.432581275
7.918732137
8.407261721
8.893932711
9.375192631
9.848170733
10.31062924
10.76088993
11.19775553
11.62044208
12.0285354
12.42198842
12.80120073
13.16724123
13.52240283
13.87118392
14.22289189
14.60485361
15.64154357
0.1094051389
0.3815448779
0.685645502
1.030312861
1.389030723
1.747062459
2.096429236
2.432289964
2.752072616
3.055133954
3.344449144
3.627688059
3.916027227
4.221420304
4.553893181
4.919866233
5.321684549
5.758050853
6.224932457
6.716589321
7.226503096
7.748103262
8.275265778
8.802605827
9.325608183
9.840643422
10.34491135
10.83634324
11.31348769
11.77540117
12.22156014
12.65180784
13.066355
13.46588087
13.85180704
14.22695198
14.59671103
14.97200103
15.38463414
16.60901769
0.1061911263
0.3741364285
0.6789534759
1.025294126
1.386044844
1.746003771
2.096945893
2.433953798
2.754426995
3.057919353
3.348412198
3.635555084
3.932874747
4.254192674
4.610361958
5.007489545
5.446703277
5.924962875
6.436336344
6.973311231
7.527898798
8.092437569
8.660095873
9.225121837
9.782907542
10.32993254
10.86363885
11.38227498
11.88473673
12.37042638
12.83914642
13.2910411
13.72660692
14.14682463
14.55349891
14.95003621
15.34286587
15.74479694
16.19284003
17.64544414
0.1032708557
0.3674939678
0.6732064242
1.021401495
1.384341867
1.746356243
2.098975954
2.437215318
2.758440099
3.062448047
3.35445902
3.646483475
3.954706329
4.294865527
4.678402094
5.110678911
5.591121564
6.114522851
6.672757812
7.256401474
7.855997259
8.462907093
9.069779596
9.670720506
10.26126031
10.83820315
11.39941965
11.94362618
12.47017914
12.97890503
13.46998065
13.94387561
14.40138112
14.84378418
15.2732898
15.6939483
16.11336531
16.54655288
17.03653224
18.76693649
0.1006039654
0.361512059
0.6682757814
1.018482652
1.383746283
1.747922462
2.10230104
2.441835834
2.76385051
3.068443354
3.36234896
3.660368334
3.981649772
4.343826596
4.758582182
5.230005931
5.755276959
6.326589721
6.933372457
7.564220506
8.208300569
8.85620064
9.500313963
10.13488655
10.755856
11.3605851
11.94756221
12.51611292
13.06615063
13.59798311
14.11218656
14.60955764
15.09117046
15.55860543
16.014472
16.4635138
16.91465837
17.38545413
17.92584578
19.99358301
0.0981565894
0.3561007954
0.6640491393
1.016401105
1.38409742
1.750518155
2.106713599
2.447584601
2.770400893
3.075629963
3.371847285
3.677123191
4.013858722
4.401471191
4.851419119
5.365888666
5.939222209
6.560600408
7.216817591
7.89451899
8.581690412
9.268443468
9.947254328
10.61284062
11.26183986
11.89241131
12.50383869
13.09617725
13.66996772
14.2260289
14.76533519
15.28898854
15.79831426
16.29515762
16.78252557
17.26589847
17.75567188
18.27227574
18.87358349
21.34890218
0.09590004441
0.3511828434
0.6604272498
1.015033375
1.38524693
1.753970086
2.11201532
2.454237785
2.777837544
3.083734369
3.382727137
3.696682605
4.051511683
4.468191305
4.957352558
5.518551774
6.14267809
6.815528
7.521171164
8.244451701
8.972486654
9.695303575
10.40586417
11.09972201
11.7745136
12.42941892
13.06466897
13.68113747
14.28003042
14.86267712
15.43042312
15.98463268
16.52683452
17.05909869
17.58481483
18.11023834
18.64737398
19.21987221
19.89460994
22.85908513
0.09380986509
0.346691266
0.6573219179
1.014267144
1.387057307
1.758115075
2.118016748
2.461578741
2.785911354
3.092486861
3.39477314
3.719006067
4.094811248
4.544363606
5.076717982
5.687987498
6.364992463
7.089854186
7.843953771
8.61062168
9.376539182
10.13212839
10.87128607
11.59077759
12.28952267
12.967915
13.6272462
14.26925816
14.89582485
15.50875654
16.10972064
16.7002853
17.28212491
17.85748837
18.43012945
19.00711134
19.60217555
20.24249873
21.00506445
24.55208452
0.09186508357
0.3425679057
0.6546545301
1.0140001
1.389401172
1.762799821
2.124537751
2.469399184
2.794379749
3.101624617
3.407786133
3.744082542
4.143982768
4.630335761
5.209718628
5.873919018
6.605108537
7.381559753
8.182157113
8.989155835
9.789350576
10.57410504
11.33872258
12.08154219
12.80301393
13.50489095
14.18959087
14.85973119
15.51782301
16.16610422
16.80649996
17.44071634
18.07051362
18.6982742
19.32809709
19.96787811
20.63319541
21.35498757
22.22141756
26.45656093
0.09004768151
0.338762165
0.6523550295
1.014139261
1.392161048
1.767881259
2.131408552
2.47750097
2.803009302
3.110895536
3.421588595
3.77193511
4.199271942
4.72641097
5.356397123
6.075768491
6.86154589
7.688136939
8.532301298
9.375811381
10.20622485
11.0164351
11.80361491
12.56799685
13.31175097
14.03807609
14.75052897
15.4525698
16.14728883
16.83728316
17.52466639
18.21121874
18.89873258
19.58968493
20.2885024
21.00392461
21.75341948
22.57180831
23.55940465
28.60071373
0.08834216262
0.3352300591
0.6503611701
1.014600571
1.395229411
1.773227167
2.138470986
2.485698092
2.811578551
3.120062302
3.43603017
3.802624993
4.260940658
4.832830582
5.516607879
6.292632199
7.132397483
8.006626281
8.890521297
9.766109613
10.62243455
11.45451277
12.26180637
13.04669308
13.81317856
14.56592758
15.3095985
16.04842804
16.78601052
17.52523004
18.26832514
19.01709773
19.77333184
20.53957049
21.32055046
22.12584323
22.97478887
23.90604918
25.03288702
31.01102586
0.08673521296
0.3319334683
0.6486179725
1.015308684
1.398508912
1.778716933
2.145579905
2.493818806
2.819880975
3.128906608
3.450993158
3.836254843
4.329261178
4.949755645
5.689992353
6.523266126
7.415346297
8.333680211
9.25268167
10.15549214
11.0333977
11.88409601
12.70968106
13.51483659
14.30543558
15.0875635
15.86689952
16.64836867
17.43598984
18.23287003
19.04132518
19.86314582
20.70008539
21.55473555
22.43212175
23.34259956
24.30726781
25.36838076
26.65272594
33.71098378
0.08521542336
0.3288395255
0.647077293
1.01619684
1.40191265
1.784242324
2.152604539
2.501707667
2.827727835
3.137233207
3.466397608
3.872970857
4.404508508
5.077248028
5.875959028
6.76608469
7.707703745
8.665653156
9.614515558
10.53949159
11.43485397
12.30145973
13.14426954
13.97032802
14.78732137
15.60265229
16.42290907
17.25360885
18.09912408
18.96273961
19.8468253
20.75315161
21.68343891
22.64031938
23.62907448
24.66074709
25.75796468
26.96609548
28.42579571
36.71986867
0.08377305609
0.3259200921
0.6456974421
1.017206725
1.40536437
1.78970811
2.159429623
2.50922726
2.834950647
3.144873492
3.482205607
3.912963357
4.486950881
5.215251916
6.073669933
7.019174668
8.006470516
8.998715566
9.971781225
10.91390668
11.82302877
12.70352172
13.56331689
14.41176274
15.25822549
16.11127678
16.97828715
17.86527604
18.77691868
19.71665989
20.68692873
21.68949249
22.72605415
23.79928264
24.91466389
26.08377216
27.33040839
28.70235304
30.35429807
40.05174644
0.08239984785
0.323151314
0.6444428665
1.018288374
1.408798673
1.79503266
2.165956462
2.516259819
2.841403502
3.151688864
3.498425062
3.956466202
4.576839255
5.363577527
6.28203642
7.280326769
8.308420079
9.328988355
10.32042878
11.2749721
12.19477629
13.08793598
13.96531398
14.83839845
15.71803761
16.61379697
17.53370384
18.48420968
19.47027051
20.49550474
21.56243511
22.67286601
23.82851215
25.03207388
26.28916542
27.61167607
29.0241123
30.57579253
32.43556168
43.71480957
0.08108883587
0.3205132143
0.6432838129
1.019399987
1.412161047
1.800148265
2.172103603
2.52270833
2.846964763
3.157573275
3.515112238
4.003754336
4.674395451
5.521887384
6.499724827
7.547084205
8.610201009
9.652689642
10.65676543
11.61951033
12.54769091
13.45314777
14.34949311
15.25009831
16.16705169
17.11073069
18.08971096
19.11083522
20.17935165
21.29909726
22.47274894
23.70220628
24.98923212
26.33654634
27.74979066
29.2409048
30.83455954
32.58066209
34.66247367
47.71120452
0.07983420334
0.317989317
0.6421959811
1.020507669
1.415407756
1.80500122
2.177807172
2.528497193
2.851538183
3.162455007
3.5323731
4.055139633
4.779799605
5.689686488
6.72517326
7.816807604
8.908453751
9.966285361
10.97760854
11.94505553
12.88018051
13.79840982
14.71579354
15.6472614
16.60588042
17.60267101
18.64667868
19.74513204
20.90361647
22.12626032
23.41597478
24.77482345
26.20465516
27.70818935
29.29097803
30.96472693
32.75372356
34.70757643
37.02461447
52.03743505
0.07863114085
0.3155662974
0.6411601674
1.021585114
1.418505599
1.809551705
2.183020907
2.533572472
2.855053497
3.166297697
3.550363462
4.11096518
4.89317753
5.86631743
6.956619878
8.086753982
9.199935527
10.26663392
11.28041542
12.24994044
13.19149774
14.12376135
15.06480413
16.03075072
17.03539182
18.09025225
19.20480779
20.38670486
21.64194142
22.97503131
24.38921239
25.88678508
27.46971986
29.14071135
30.9051058
32.77411399
34.77117279
36.94492036
39.51004779
56.6853768
0.07747571887
0.3132336435
0.6401618692
1.022613174
1.421431472
1.813773359
2.187715768
2.537901561
2.857466245
3.169100296
3.569287583
4.171597756
5.014588079
6.0509606
7.192141458
8.354165291
9.481644797
10.55111365
11.56337923
12.53333922
13.48172704
14.42997276
15.39768863
16.40182545
17.45667299
18.57416612
19.76421495
21.03495143
22.39288647
23.84302789
25.38903793
27.03352593
28.77861772
30.62696357
32.58361397
34.65909825
36.87570657
39.28079351
42.10757764
61.64386543
0.07636477042
0.3109833277
0.6391908592
1.023579345
1.424171761
1.817652589
2.191879156
2.541472328
2.858756895
3.170896034
3.58939529
4.237418729
5.14401105
6.242639874
7.429700872
8.616361617
9.75093689
10.81772358
11.82548357
12.79526331
13.7517296
14.7184616
15.71610059
16.76208216
17.87102139
19.05522226
20.32507818
21.68930643
23.15505064
24.72792958
26.4121285
28.21063599
30.12576932
32.16013293
34.31844501
36.61048965
39.05736158
41.70527853
44.80918225
66.90076327
0.075295783
0.3088094914
0.6382407399
1.024477176
1.426721601
1.821187652
2.195513792
2.544291772
2.858929309
3.171750417
3.61097768
4.308813585
5.28133605
6.440233698
7.667201127
8.870833259
10.00562248
11.0651495
12.06651135
13.03651124
14.00305143
14.99118657
16.02209267
17.11340534
18.27995726
19.53443881
20.88781909
22.34952853
23.92747807
25.62801981
27.45596106
29.41474089
31.50691409
33.73507034
36.10363572
38.6217422
41.30953142
44.21272948
47.61228748
72.44535701
0.07426679817
0.306708136
0.6373084686
1.025305598
1.429083969
1.824387487
2.19863624
2.54638418
2.858008531
3.17175823
3.634361395
4.386160187
5.426352523
6.642490996
7.902542995
9.115325605
10.24404163
11.29279047
12.28700782
13.25857682
14.23780182
15.25052657
16.31802386
17.45792436
18.68524617
20.01314248
21.45329104
23.01598783
24.71005866
26.54271718
28.51949533
30.64436107
32.92017196
35.3495782
37.93684447
40.6907122
43.63090501
46.80377123
50.52158424
78.27089136
0.07327631977
0.3046768306
0.6363938795
1.026068216
1.431268694
1.827270393
2.201275179
2.547788928
2.856038075
3.171039779
3.659901756
4.469816215
5.578741436
6.848051499
8.133683407
9.347911725
10.46510866
11.50074444
12.48820185
13.46352435
14.45851205
15.49915232
16.60646718
17.79797286
19.08891975
20.49305734
22.02294247
23.68991209
25.50386843
27.47302466
29.60374995
31.90063476
34.36693211
37.00547879
39.82059928
42.82106074
46.02695668
49.48675191
53.55019809
84.37700376
0.07232322925
0.3027144305
0.6354991974
1.026772556
1.433291382
1.829862546
2.203469442
2.548557947
2.853076774
3.16973644
3.687974872
4.56010602
5.738068844
7.055469605
8.358691512
9.567048293
10.66832529
11.68975533
12.67189283
13.6538411
14.66798432
15.73989743
16.89011939
18.13604543
19.49328266
20.97636348
22.59892917
24.37355687
26.31140479
28.42184014
30.71220012
33.18781455
35.85245768
38.70932865
41.76311018
45.02312992
48.51081963
52.2785061
56.72015705
90.7718061
0.07140670872
0.3008208118
0.6346285565
1.027429294
1.435172278
1.832196434
2.205265909
2.548752981
2.849195345
3.168005734
3.718968999
4.657307301
5.903781645
7.263241022
8.575799794
9.771611996
10.85376236
11.86112715
12.84031324
13.83227881
14.86914136
15.97563551
17.17171446
18.47474855
19.90089824
21.46571392
23.18416058
25.07028138
27.1366946
29.39410081
31.85096258
34.51349564
37.38615547
40.47272116
43.778585
47.31423771
51.10350773
55.20443234
60.06223459
97.47337141
0.07052617308
0.2989966344
0.6337875573
1.02805154
1.436935187
1.834309324
2.206717442
2.548442901
2.844473033
3.166016375
3.753275688
4.761638304
6.07520625
7.469831858
8.783448587
9.960915761
11.02201361
12.01661383
12.99597942
14.0016973
15.06488723
16.20917033
17.45394424
18.81674659
20.31455231
21.96420929
23.78228017
25.78453179
27.9852787
30.39676744
33.02877716
35.88858886
38.98153056
42.31220676
45.8870938
49.71846107
53.83358979
58.29803079
63.61536808
104.5104987
0.06968120827
0.2972431171
0.6329828302
1.028654098
1.438606365
1.836241697
2.207880768
2.547700947
2.8389942
3.163943132
3.791280528
4.873245452
6.251549852
7.673708733
8.980321677
10.13470429
11.17412562
12.15829363
13.14154128
14.16491974
15.25798635
16.44314271
17.73938799
19.16470404
20.73719758
22.47533538
24.39758927
26.52174597
28.86409324
31.43867753
34.2568247
37.32709374
40.65590041
44.24893124
48.1141139
52.26607541
56.73652476
61.60015679
67.42592516
111.9227552
0.06887151863
0.2955618436
0.6322216491
1.029252817
1.440213515
1.838035821
2.208814559
2.546602248
2.832845278
3.161962038
3.833354115
4.992192188
6.431905067
7.873369807
9.165372729
10.29313146
11.31151141
12.28843934
13.27964292
14.32460998
15.45096789
16.67995927
18.03045497
19.52122935
21.171887
23.00287633
25.03493259
27.28820553
29.78128307
32.53031444
35.54844506
38.84575547
42.42997918
46.30813494
50.48993586
54.99287136
59.85391625
65.15827892
71.54708688
119.7599031
0.0680968827
0.2939545965
0.6315115938
1.029864001
1.441784894
1.839734484
2.209577732
2.54522165
2.826112165
3.160245991
3.879843256
5.118449233
6.615258039
8.067375975
9.337842086
10.43672238
11.43585463
12.40939361
13.41280274
14.48317724
15.64605822
16.92174386
18.3293412
19.88882329
21.62170227
23.5508146
25.69956343
28.09086204
30.74598554
33.68354528
36.91882426
40.46369563
44.32744571
48.51865475
53.04910379
57.93955385
63.2329184
69.02597664
76.03853834
128.0808923
0.06735711694
0.2924232167
0.6308602559
1.030503905
1.443348526
1.841379891
2.210227987
2.543631856
2.818878056
3.158960769
3.931062425
5.251886412
6.800500035
8.254381539
9.497264068
10.56632363
11.54901151
12.52345699
13.54331827
14.64271035
15.84514065
17.17030986
18.63799925
20.26983286
22.08968197
24.12322703
26.39700457
28.93716174
31.7681196
34.91137492
38.38471351
42.20209597
46.37459344
50.91254598
55.83002576
61.15137591
66.92595412
73.26283062
80.96658384
136.9526587
0.0666520477
0.2909694909
0.6302749963
1.0311883
1.444931553
1.843012752
2.210820618
2.541901963
2.811221803
3.158261538
3.987285547
5.39226636
6.986442739
8.433163886
9.643465349
10.68304538
11.65291634
12.63279395
13.67319792
14.80494023
16.04973905
17.42714977
18.9581189
20.66641182
22.57875461
24.72418661
27.13291802
29.83488532
32.85819954
36.22773938
39.96420951
44.0839743
48.60011344
53.52489037
58.8748373
64.6781094
70.99087213
77.93486002
86.40484957
146.449027
0.06598149179
0.2895950701
0.6297627616
1.031932151
1.446559736
1.844671606
2.211407649
2.540096424
2.803216897
3.15828996
4.048738205
5.539240438
7.171837362
8.602651652
9.776555176
10.78819907
11.74949537
12.73935959
13.80411894
14.97122674
16.26102032
17.69343741
19.29111649
21.08048905
23.09168172
25.35767881
27.91299558
30.79201617
34.02718703
37.64735108
41.67660563
46.13405884
51.03501473
56.39379591
62.22953362
68.57439463
75.49163412
83.11566565
92.4358069
156.6500067
0.06534524369
0.28830141
0.6293299417
1.032749359
1.448257074
1.846392316
2.212037233
2.538274385
2.794930948
3.159171758
4.115590087
5.692346846
7.355397174
8.761950238
9.896907632
10.88323308
11.84059158
12.84484709
13.93740827
15.14256497
16.47981042
17.97003876
19.63812973
21.51374144
23.63100632
26.02752609
28.74286271
31.81663012
35.28637682
39.18559381
43.54231362
48.37875942
53.7126779
59.56058489
65.94437999
72.90051557
80.49965237
88.88850599
99.15343358
167.6416803
0.06474306839
0.287089731
0.6289822621
1.03365256
1.450045517
1.848207711
2.21275327
2.536489349
2.786425669
3.161014704
4.187947562
5.85101095
7.535822968
8.910363555
10.00513643
10.96966885
11.92790233
12.95065509
14.07404287
15.31960622
16.70662017
18.25752895
20.00001702
21.96757022
24.19900368
26.73731369
29.62798484
32.91679296
36.64730095
40.85845361
45.58284504
50.84623016
56.66904413
63.07018658
70.07464653
77.72370895
86.09599305
95.3496658
106.6674112
179.5167313
0.06417469932
0.2859609983
0.6287247176
1.034652999
1.451944802
1.850147443
2.213595335
2.534789256
2.777757422
3.163907073
4.265846363
6.014547958
7.711831032
9.047411212
10.10206334
11.04904032
12.01293128
13.0578735
14.21466569
15.50268872
16.94167486
18.55620908
20.37735435
22.44307438
24.79762946
27.4903135
30.57357234
34.10045769
38.12163577
42.68245948
47.82081696
53.5664832
59.94290463
66.97172322
74.68171168
83.12016017
92.37478009
102.6136658
115.1095273
192.375747
0.06363983775
0.2849159071
0.6285615167
1.035760435
1.453972344
1.852237917
2.214598745
2.533216773
2.76897806
3.167916221
4.349243926
6.182167535
7.882182603
9.172839918
10.18868108
11.12283818
12.0969547
13.16728529
14.35961294
15.69187277
17.1849418
18.86611529
20.77042123
22.94101247
25.428458
28.28940189
31.58448398
35.37536311
39.72111045
44.67462484
50.27996253
56.57152759
63.57627044
71.31930077
79.83462759
89.17794987
99.44834789
110.8212125
124.6432514
206.3293565
0.06313815272
0.283954871
0.628496035
1.036983055
1.456143173
1.854502324
2.215794759
2.53180975
2.760136
3.173087196
4.438011253
6.352980416
8.045714253
9.286628659
10.26611219
11.19246117
12.18100145
13.27938018
14.50894699
15.88697511
17.43615181
19.18701864
21.17917541
23.46175126
26.09260513
29.13695953
32.66510988
36.74890938
41.45738939
46.85236118
52.98511812
59.89550774
67.6148091
76.17303297
85.61228759
96.00133804
107.4549671
120.15123
135.4779297
221.5013065
0.06266928112
0.2830780151
0.6285307852
1.038327436
1.458469927
1.856960751
2.217210887
2.530601809
2.751277463
3.179441353
4.531924402
6.526007271
8.201368791
9.388987411
10.33556542
11.25917521
12.26584499
13.39437604
14.66248926
16.08759675
17.69481151
19.51841602
21.60322031
24.0052064
26.79063622
30.03474347
33.81920944
38.22797069
43.34187944
49.23331478
55.96214816
63.57482133
72.10835809
81.60037025
92.10641739
103.7169562
116.5703562
130.8389512
147.8896954
238.03252
0.06223282558
0.2822851625
0.6286673754
1.039798481
1.460962832
1.859630254
2.218871133
2.529622836
2.742447618
3.186974784
4.630655511
6.70018965
8.348225452
9.480348419
10.39829039
11.3240804
12.35200476
13.51224409
14.81984993
16.29314286
17.96020446
19.85950915
22.04176065
24.57076871
27.52245182
30.98372049
35.04968461
39.81861031
45.38540644
51.83505005
59.23771547
67.64812192
77.1114443
87.67774894
99.42563659
112.4826957
127.0247806
143.2031115
162.2521673
256.0859774
0.06182835125
0.281575819
0.6289064666
1.041399356
1.463629639
1.862524873
2.220796143
2.528899353
2.733691644
3.195656727
4.733763744
6.874403142
8.485528282
9.561349391
10.45553103
11.38808501
12.43975425
13.63273545
14.98045476
16.50283692
18.23138362
20.20916973
22.49353629
25.15719786
28.28712741
31.98383953
36.35827145
41.52568309
47.59773697
54.67452774
62.83880038
72.15605906
82.68363149
94.49243146
107.7007162
122.5001506
139.1281064
157.6865137
179.0812738
275.8520252
0.06145538069
0.2809491519
0.6292477181
1.043131392
1.466475512
1.865655529
2.22300318
2.528454711
2.725055639
3.205428004
4.840686491
7.047472419
8.612710948
9.632807865
10.50847907
11.45188669
12.52913399
13.75540637
15.1435664
16.71572775
18.50715434
20.5658903
22.9567305
25.76246896
29.08267533
33.03368743
37.74506771
43.3522157
49.98680578
57.76720242
66.79174705
77.14047965
88.8893751
102.1442481
117.0910223
134.0315519
153.3059441
174.9162088
199.1007094
297.5538595
0.06111338581
0.280403957
0.6296897014
1.044993917
1.469502776
1.869029717
2.225505836
2.528308971
2.716587158
3.216199395
4.95073105
7.2181875
8.729415761
9.695686159
10.5582286
11.51596085
12.61996824
13.87964006
15.30829562
16.93068111
18.78603917
20.92771752
23.4288596
26.38358908
29.90574639
34.13002739
39.20785217