/*--------------------------------*- C++ -*----------------------------------*\
| =========                 |                                                 |
| \\      /  F ield         | foam-extend: Open Source CFD                    |
|  \\    /   O peration     | Version:     3.2                                |
|   \\  /    A nd           | Web:         http://www.foam-extend.org         |
|    \\/     M anipulation  | For copyright notice see file Copyright         |
\*---------------------------------------------------------------------------*/
FoamFile
{
    version     2.0;
    format      ascii;
    class       volScalarField;
    location    "0.12";
    object      psiZ;
}
// * * * * * * * * * * * * * * * * * * * * * * * * * * * * * * * * * * * * * //

dimensions      [0 2 -2 0 0 0 0];

internalField   nonuniform List<scalar> 
18000
(
-0.01923109399
-0.03198075111
-0.04076524869
-0.04734883399
-0.05291416068
-0.05813434932
-0.06334929141
-0.06873361832
-0.07437578412
-0.08031722508
-0.08657229803
-0.09313874979
-0.1000034664
-0.1071458511
-0.1145399968
-0.1221562279
-0.1299622946
-0.137924359
-0.1460078345
-0.1541781094
-0.1624011653
-0.1706440971
-0.178875538
-0.1870659952
-0.1951881003
-0.2032167853
-0.2111293872
-0.2189056963
-0.2265279533
-0.2339808045
-0.2412512245
-0.2483284112
-0.2552036567
-0.26187019
-0.2683229749
-0.2745584287
-0.2805740174
-0.2863680922
-0.2919497191
-0.2975769682
0.0006374240312
-0.0002454789838
-0.0007934897565
-0.0007009168674
-0.0003201074308
0.0001243290532
0.0005364738085
0.0008786519078
0.001140417376
0.001323392645
0.001434070419
0.001480438721
0.001470448722
0.001411378315
0.001309629932
0.001170734285
0.0009994438124
0.0007998560553
0.0005755368236
0.000329629204
6.494329424e-05
-0.0002159738509
-0.0005107862769
-0.000817332334
-0.001133599997
-0.001457711695
-0.001787916475
-0.002122587917
-0.002460226505
-0.002799465498
-0.00313908029
-0.003478002376
-0.003815341737
-0.004150425322
-0.004482865821
-0.004812685283
-0.005140533038
-0.005468126592
-0.005799759971
-0.00615345275
0.007048631072
0.01130654238
0.01403321678
0.01656115707
0.01896406198
0.02121764912
0.0233151808
0.02526180827
0.02706853315
0.02874827779
0.03031390254
0.03177728528
0.03314901846
0.03443837753
0.03565340996
0.03680107234
0.03788737674
0.03891752838
0.03989604715
0.04082687147
0.04171344545
0.04255879153
0.04336557119
0.04413613584
0.04487256987
0.04557672732
0.04625026289
0.04689465846
0.0475112455
0.04810122405
0.04866567885
0.04920559279
0.04972185858
0.05021529011
0.05068663678
0.05113661227
0.051565999
0.0519762146
0.05237350596
0.05279510936
0.009340460259
0.01617255942
0.02068218061
0.02453494886
0.02800879376
0.03118362961
0.03410326102
0.03679955554
0.03929844739
0.04162181129
0.04378831982
0.04581398421
0.04771259046
0.04949605804
0.05117473464
0.05275763771
0.05425265274
0.0556666979
0.05700586171
0.05827551874
0.05948042808
0.0606248178
0.06171245774
0.0627467226
0.06373064649
0.0646669701
0.06555818114
0.06640654897
0.06721415409
0.06798291326
0.06871460108
0.06941086899
0.0700732637
0.07070325056
0.07130225677
0.07187178709
0.07241383162
0.07293247614
0.07344139004
0.07399385838
0.01015412343
0.01837397063
0.02397635714
0.02865672535
0.03279633154
0.03653395668
0.03994460567
0.04307784611
0.04597030568
0.04865080493
0.0511428865
0.05346625012
0.05563766106
0.05767156132
0.05958049723
0.0613754299
0.06306597025
0.06466056547
0.06616665348
0.06759079509
0.06893878979
0.070215778
0.0714263317
0.07257453447
0.07366405144
0.07469819013
0.07567995237
0.07661207869
0.07749708582
0.07833729829
0.07913487597
0.0798918394
0.08061009852
0.08129149867
0.0819379249
0.08255159293
0.08313596696
0.08369870571
0.08426201498
0.08489378764
0.01040525774
0.01942273459
0.02576294796
0.03102451877
0.03563892993
0.03977914937
0.04354002799
0.04698311241
0.05015272799
0.05308299334
0.05580136491
0.05833063224
0.06069012977
0.06289650707
0.0649642358
0.06690595829
0.06873274287
0.07045428542
0.07207907989
0.07361456935
0.07506728305
0.07644296115
0.07774666744
0.07898288995
0.08015562923
0.08126847478
0.08232467002
0.0833271671
0.08427867287
0.0851816875
0.08603853877
0.08685141665
0.08762241964
0.08835364107
0.08904737138
0.0897066207
0.09033654939
0.09094827084
0.09156961956
0.09227050323
0.01043390006
0.01993277173
0.02680655307
0.03250988343
0.03749455778
0.0419531399
0.04599316804
0.04968436495
0.05307663625
0.05620815626
0.0591095301
0.06180613971
0.06431954371
0.06666833734
0.06886869446
0.07093472674
0.07287874376
0.07471146316
0.07644219675
0.0780790237
0.07962895399
0.08109808098
0.08249172122
0.08381453961
0.08507065895
0.08626375385
0.08739712966
0.08847378801
0.08949648095
0.09046775617
0.09138999785
0.09226547124
0.09309638976
0.09388504873
0.09463413617
0.09534748351
0.09603192738
0.09670169171
0.09738930555
0.09816781133
0.01037979778
0.02018419908
0.02746572333
0.03352496287
0.03881680275
0.04354437406
0.04782321711
0.05172865042
0.05531467303
0.05862262174
0.06168569974
0.06453153557
0.06718368774
0.06966253749
0.07198582607
0.07416899816
0.07622545219
0.07816675399
0.08000284025
0.08174221949
0.0833921692
0.08495892366
0.08644784716
0.08786358866
0.08921021598
0.09049132907
0.09171015368
0.09286961748
0.0939724118
0.09502104257
0.09601787743
0.09696520103
0.09786530516
0.09872067309
0.0995343964
0.1003111246
0.1010592505
0.1017956215
0.1025562764
0.1034160516
0.01030344187
0.02031465044
0.02792332233
0.03428267918
0.03984099096
0.04480627472
0.04929895517
0.05339818024
0.05716100465
0.06063130503
0.06384451438
0.06683030047
0.06961411027
0.07221804467
0.07466135202
0.0769607298
0.07913055221
0.08118308526
0.08312871303
0.08497617607
0.08673281305
0.08840479387
0.08999733454
0.09151488734
0.09296130329
0.09433996677
0.09565390423
0.09690587034
0.09809841582
0.09923394259
0.1003147554
0.1013431261
0.1023214052
0.1032522524
0.1041391492
0.1049875179
0.1058071763
0.1066173431
0.1074574633
0.1084057834
0.01023151273
0.02039552507
0.02827908275
0.03490139714
0.04069903445
0.04588135844
0.05057161383
0.0548515815
0.05878066509
0.06240487072
0.06576164569
0.06888261102
0.07179509043
0.07452291688
0.07708684175
0.079504769
0.08179194964
0.08396120094
0.08602316648
0.08798660694
0.08985870136
0.09164533872
0.09335138432
0.09498091213
0.09653739915
0.09802388261
0.09944308313
0.1007974991
0.1020894785
0.1033212755
0.1044951041
0.1056132093
0.1066779965
0.1076923044
0.1086600007
0.1095872509
0.1104852091
0.1113753126
0.1123003361
0.1133425959
0.01017509079
0.02046441742
0.02858920241
0.03544961165
0.0414682402
0.04685366529
0.0517306149
0.05618271529
0.06027126128
0.06404414688
0.06754074694
0.07079465584
0.0738351485
0.07668786499
0.07937509181
0.08191590315
0.08432631641
0.086619525
0.0888062109
0.09089490923
0.09289238926
0.09480402045
0.09663410177
0.09838614271
0.1000630923
0.1016675189
0.1032017453
0.1046679487
0.1060682323
0.1074046796
0.1086794067
0.1098946362
0.1110528414
0.1121570548
0.1132115405
0.1142232019
0.1152045076
0.1161791248
0.117193435
0.1183350974
0.01013780908
0.0205406766
0.02888553905
0.03596763862
0.04219498071
0.04777414005
0.05283049541
0.05744902696
0.06169265282
0.06561105017
0.0692455457
0.07263182158
0.07580125266
0.07878140848
0.0815961589
0.08426569906
0.08680666715
0.08923241002
0.09155337629
0.09377758393
0.09591110616
0.09795853049
0.09992336255
0.1018083612
0.1036158033
0.1053476827
0.1070058545
0.1085921338
0.1101083624
0.1115564559
0.1129384498
0.1142565723
0.1155133992
0.1167121952
0.1178576578
0.1189574621
0.1200254304
0.1210875545
0.1221941297
0.1234390954
0.01011973624
0.02063344106
0.02918565318
0.03647895592
0.04290702541
0.04867379596
0.05390480697
0.05868611281
0.06308213127
0.06714432958
0.07091610715
0.07443543189
0.07773598924
0.08084743047
0.08379525119
0.0866006808
0.08928077419
0.09184874202
0.09431446385
0.09668509637
0.09896569367
0.1011597792
0.1032698344
0.1052976912
0.1072448291
0.1091125893
0.1109023187
0.1126154615
0.114253613
0.115818553
0.1173122806
0.1187370819
0.1200956925
0.1213916697
0.1226302086
0.1238198304
0.124975817
0.1261266882
0.1273271232
0.1286784923
0.01011935772
0.020746158
0.02949859805
0.03699677106
0.04362067642
0.04957131363
0.05497411634
0.05991608146
0.06446311146
0.06866856173
0.07257810961
0.07623228009
0.0796673282
0.08291515011
0.08600288003
0.08895263294
0.09178159654
0.09450247371
0.0971241683
0.09965257942
0.1020913892
0.1044427666
0.1067079484
0.1088876871
0.1109825741
0.1129932578
0.114920578
0.1167656386
0.1185298398
0.1202148912
0.1218228285
0.1233560735
0.1248176016
0.1262113464
0.1275430927
0.1288223227
0.1300659467
0.1313053091
0.132600054
0.1340601919
0.01013460649
0.02087923429
0.02982844527
0.03752805942
0.04434515888
0.05047770174
0.05605088919
0.06115262955
0.06585037613
0.07019954558
0.07424837228
0.0780402728
0.08161436413
0.08500494015
0.08824073198
0.09134450547
0.09433319889
0.09721854404
0.1000079909
0.1027057404
0.1053137338
0.1078325043
0.1102618517
0.1126013383
0.1148506255
0.1170096804
0.1190788857
0.1210590812
0.1229515642
0.1247580721
0.126480778
0.1281223384
0.129686067
0.1311763754
0.1325997545
0.1339668005
0.1352962895
0.1366228031
0.1380117228
0.1395832125
0.01016338458
0.02103160452
0.03017648284
0.03807612803
0.04508542318
0.05139926957
0.05714259196
0.06240424632
0.06725336369
0.07174765763
0.07593826403
0.0798718784
0.08359078933
0.08713180801
0.09052514082
0.09379386158
0.0969541648
0.1000162531
0.1029855802
0.1058641799
0.1086518879
0.1113473517
0.113948792
0.1164545313
0.1188633227
0.1211745259
0.1233881741
0.1255049682
0.127526234
0.1294538669
0.1312903008
0.1330385425
0.1347023547
0.1362867412
0.137799034
0.1392511327
0.1406639844
0.1420759471
0.1435591269
0.1452457046
0.0102037954
0.02120161929
0.03054255113
0.03864221497
0.04584390929
0.05233949931
0.05825363672
0.06367620646
0.06867819103
0.07331989003
0.07765574372
0.08173615687
0.085606899
0.08930736125
0.09286899875
0.09631472337
0.0996593716
0.1029109687
0.1060723814
0.1091430012
0.1121202251
0.1150006218
0.1177807646
0.1204577653
0.1230295689
0.1254950726
0.1278541275
0.1301074704
0.1322566235
0.1343037959
0.1362518207
0.1381041789
0.1398651963
0.1415405871
0.1431386709
0.1446728719
0.1461666855
0.1476629278
0.1492416831
0.1510494913
0.01025421405
0.02138750285
0.03092580396
0.03922643435
0.04662160379
0.05330017062
0.05938654338
0.064971749
0.07012883263
0.07492101659
0.07940650131
0.08363986384
0.08767064539
0.09154079814
0.09528267158
0.09891840453
0.1024607407
0.1059148031
0.1092802558
0.1125533972
0.1157289133
0.1188011876
0.121765173
0.1246168965
0.127353683
0.1299741879
0.1324783088
0.1348670369
0.1371422898
0.1393067618
0.1413638305
0.1433175716
0.1451729822
0.1469365991
0.1486178806
0.150232023
0.1518055178
0.1533864727
0.1550644935
0.157003359
0.01031327364
0.0215875485
0.03132509653
0.0398282854
0.04741862149
0.05428198187
0.06054257757
0.06629271447
0.07160774336
0.07655418954
0.08119451775
0.08558796271
0.08978809004
0.09383928823
0.09777429817
0.1016137252
0.1053673727
0.1090366818
0.1126175054
0.1161026566
0.1194839338
0.1227535413
0.1259049562
0.1289333556
0.1318357277
0.1346107816
0.1372587463
0.1397811235
0.1421804442
0.1444600657
0.1466240484
0.1486771706
0.1506251904
0.1524755646
0.1542390362
0.1559328407
0.1575869819
0.1592558461
0.1610404116
0.1631251605
0.01037981637
0.02180016916
0.03173914976
0.04044689188
0.04823448917
0.05528485585
0.06172206167
0.06763984807
0.0731161428
0.07822119514
0.08302228276
0.0875837947
0.09196351525
0.09620801471
0.1003497573
0.1044069039
0.108385374
0.1122821229
0.116088629
0.1197939258
0.1233868755
0.126857649
0.1301985262
0.1334041865
0.1364716591
0.1394000745
0.1421903244
0.1448447028
0.1473665803
0.1497601471
0.152030267
0.154182503
0.1562234359
0.1581615147
0.1600088996
0.161785145
0.1635243417
0.1652882877
0.1671914838
0.1694431582
0.01045283735
0.02202388023
0.03216659663
0.04108109293
0.04906826307
0.05630806954
0.06292450533
0.06901292148
0.07465411978
0.07992253328
0.08489084145
0.08962908365
0.09419937745
0.09865006812
0.1030124981
0.1073013289
0.1115175818
0.1156529375
0.1196940242
0.1236259393
0.1274347207
0.1311088124
0.1346397197
0.1380220964
0.1412534806
0.1443338523
0.1472651319
0.1500506998
0.1526949854
0.1552031622
0.1575809875
0.1598348549
0.161972193
0.1640024816
0.165939409
0.1678051295
0.1696384426
0.1715098164
0.1735496884
0.1759965957
0.01053143531
0.02225726085
0.03260597846
0.04172946666
0.04991856963
0.05735030322
0.06414865557
0.07041077714
0.07622066449
0.08165743094
0.08679978256
0.09172389142
0.0964962213
0.1011663125
0.1057633571
0.1102973341
0.1147633166
0.1191469806
0.1234297635
0.1275928453
0.13161974
0.1354976462
0.1392178659
0.1427756127
0.1461694805
0.1494007732
0.1524728255
0.1553903943
0.1581591676
0.1607854199
0.1632758529
0.1656376929
0.1678791972
0.1700108759
0.1720480271
0.1740156779
0.175957984
0.1779554301
0.1801569989
0.1828354829
0.01061477553
0.02249891743
0.03305572997
0.04239033405
0.05078362303
0.05840966645
0.06539252632
0.07183135673
0.07781369095
0.08342385364
0.08874723326
0.09386658918
0.09885262026
0.1037552907
0.1086004312
0.1133920502
0.1181182289
0.1227580192
0.1272875052
0.1316841809
0.1359295437
0.1400102104
0.1439179936
0.1476493537
0.1512045494
0.1545867115
0.1578009753
0.1608537471
0.1637521407
0.1665036083
0.1691158005
0.1715967311
0.1739554203
0.1762033654
0.1783575226
0.1804460429
0.1825190858
0.1846685306
0.187064594
0.1900194207
0.01070206527
0.02274745921
0.03351417122
0.04306176727
0.05166124708
0.05948373054
0.0666534384
0.07327174514
0.07943008143
0.08521854616
0.09072989146
0.09605387557
0.1012651747
0.1064132002
0.1115190347
0.1165793571
0.1215742686
0.1264757383
0.1312545591
0.1358850075
0.140347291
0.1446282858
0.1487211586
0.1526243845
0.156340536
0.1598750816
0.1632353288
0.1664295738
0.1694664826
0.1723547164
0.1751028313
0.1777195362
0.1802145037
0.1826001346
0.1848950529
0.1871307509
0.189364004
0.1916994172
0.1943310433
0.1976152744
0.01079253993
0.02300148742
0.03397951263
0.04374161108
0.05254891173
0.06056957845
0.06792808083
0.07472824098
0.08106576322
0.08703711249
0.09274310513
0.09828085054
0.1037285759
0.1091339463
0.1145117499
0.1198499466
0.1251197795
0.1302858892
0.1353140992
0.1401761943
0.1448520366
0.1493297659
0.1536048514
0.1576786064
0.1615565809
0.1652470788
0.1687599193
0.1721054886
0.175294086
0.1783355669
0.1812393058
0.1840145734
0.1866715464
0.189223408
0.1916904221
0.1941075895
0.1965388343
0.1991026669
0.2020192678
0.2056934844
0.01088545715
0.0232595962
0.03444987261
0.04442751813
0.05344378558
0.06166387354
0.06921259469
0.07619645401
0.08271581771
0.08887413429
0.09478099748
0.1005411435
0.1062357338
0.1119092713
0.1175685673
0.1231914906
0.1287397144
0.1341705668
0.139445512
0.1445348304
0.149419188
0.1540891288
0.1585434468
0.1627871392
0.1668293853
0.1706817879
0.1743569741
0.1778675731
0.1812255547
0.1844419136
0.1875267215
0.1904896472
0.1933411954
0.1960951822
0.198773444
0.2014145906
0.2040900934
0.2069332674
0.2101921146
0.2143228466
0.01098009664
0.02352038224
0.03492330494
0.04511699534
0.05434280111
0.06276294363
0.07050267544
0.07767142489
0.08437461664
0.09072332238
0.09683663203
0.1028270897
0.1087779631
0.1147289547
0.1206771103
0.1265889079
0.132415963
0.1381086085
0.143624864
0.1489347471
0.1540210526
0.1588779687
0.1635086698
0.1679226703
0.1721333905
0.1761561445
0.1800066103
0.1836997668
0.187249253
0.1906671194
0.193963992
0.1971497585
0.2002350612
0.2032341791
0.2061704141
0.2090859954
0.2120601407
0.2152414311
0.2189064529
0.2235636825
0.01107576355
0.02378245985
0.03539783247
0.04580745737
0.05524272862
0.06386287553
0.07179368835
0.07914776154
0.08603597915
0.0925776946
0.09890221094
0.1051299475
0.1113452205
0.1175810754
0.1238229373
0.130024724
0.1361277825
0.1420761018
0.1478254781
0.1533471353
0.1586274587
0.1636655704
0.1684700691
0.1730557702
0.1774408807
0.1816447713
0.1856863583
0.1895830342
0.1933500777
0.197000497
0.200545324
0.2039944854
0.207358569
0.2106521339
0.2138997942
0.2171472911
0.2204815082
0.2240661425
0.228205832
0.233459486
0.01117179389
0.0240444792
0.03587148405
0.04649628387
0.05614025473
0.06495961572
0.07308079205
0.08061978644
0.08769334394
0.0944297739
0.1009693001
0.1074401514
0.1139263873
0.1204523323
0.1269899156
0.1334795156
0.1398523261
0.1460469952
0.1520186081
0.1577412526
0.1632064464
0.1684195305
0.1733955107
0.1781552001
0.1827220484
0.1871197527
0.1913705971
0.1954944168
0.1995080857
0.2034254704
0.2072578697
0.211015082
0.214707456
0.2183496353
0.2219673367
0.2256095466
0.2293703667
0.2334276648
0.238111958
0.244027402
0.011267561
0.0243051456
0.03634233224
0.04718087741
0.05703206188
0.06604907294
0.0743590657
0.08208168999
0.08933995084
0.09627180073
0.1030290749
0.109747593
0.1165095896
0.1233284158
0.1301606599
0.1369324337
0.1435652591
0.1499938007
0.1561742046
0.1620852117
0.1677250293
0.1731064356
0.1782517153
0.1831882545
0.1879450935
0.1925504413
0.1970300258
0.201406127
0.2056971649
0.2099177766
0.2140794074
0.2181915798
0.2222642269
0.2263118631
0.2303610163
0.2344634448
0.2387195589
0.2433194918
0.2486155627
0.255248276
0.0113624821
0.0245632385
0.03680852975
0.04785871965
0.05791490617
0.06712721941
0.07562363573
0.08352768537
0.09096902683
0.09809595402
0.10507258
0.1120419233
0.1190825497
0.1261944202
0.1333170259
0.140361795
0.1472414525
0.1538883791
0.1602617617
0.1663468457
0.1721500285
0.1776926122
0.1830048746
0.188121199
0.1930764401
0.1979034171
0.2026313267
0.2072848754
0.2118839823
0.2164439827
0.2209763695
0.2254902569
0.2299949858
0.2345046887
0.2390462997
0.2436736129
0.2484918913
0.2537005556
0.2596676491
0.2670574878
0.01145602453
0.02481762903
0.03726834344
0.04852742397
0.05878569092
0.06819018776
0.07686979877
0.08495216056
0.09257397135
0.0998945747
0.1070909964
0.1143128679
0.1216329581
0.129035288
0.1364406469
0.1437457259
0.150855738
0.1577027879
0.1642512278
0.17049464
0.1764489778
0.1821449635
0.1876213813
0.1929198607
0.1980811609
0.2031427204
0.2081371798
0.2130916354
0.2180274591
0.2229606229
0.2279025793
0.2328619031
0.2378471438
0.2428717309
0.247962445
0.2531740667
0.2586146584
0.2644888685
0.2711725352
0.2793382462
0.01154771111
0.02506729539
0.03772018431
0.04918478295
0.05964153393
0.06923436081
0.07809313696
0.08634982316
0.09414853529
0.1016603848
0.1090759066
0.1165505445
0.1241488532
0.1318362703
0.1395134948
0.1470628397
0.1543836985
0.1614101699
0.1681139579
0.1744987099
0.1805910921
0.1864318964
0.1920686945
0.1975504191
0.2029236845
0.2082304671
0.2135067756
0.2187820341
0.2240790122
0.2294142518
0.2347990654
0.2402413316
0.2457485541
0.2513330331
0.2570206436
0.2628657619
0.2689766135
0.2755580723
0.2829844598
0.2919193157
0.01163712452
0.02531133556
0.03816263304
0.04982880935
0.06047982677
0.0702564519
0.07928962277
0.08771583374
0.09568698819
0.1033866945
0.1110195483
0.1187457708
0.1266189943
0.1345833841
0.1425184445
0.1502929194
0.1578024681
0.1649856469
0.1718236735
0.1783317956
0.1845482733
0.1905243283
0.1963163455
0.2019804198
0.2075688304
0.2131279183
0.2186969274
0.2243075113
0.2299837522
0.2357426635
0.2415952755
0.2475485513
0.2536086021
0.2597860338
0.2661048501
0.2726173072
0.2794286862
0.2867384711
0.2949095591
0.3045790538
0.01172391028
0.02554897673
0.03859446015
0.05045776962
0.06129828425
0.07125357337
0.08045570984
0.08904592325
0.09718426759
0.1050675902
0.1129150473
0.1208903489
0.1290332114
0.1372638475
0.1454398156
0.1534175769
0.1610915005
0.1684071793
0.1753573861
0.1819702312
0.1882961173
0.1943967391
0.2003370585
0.2061799955
0.2119831672
0.2177970137
0.2236638151
0.2296173019
0.2356827289
0.2418774176
0.2482118948
0.2546918897
0.2613216502
0.2681093646
0.2750759993
0.2822697345
0.2897895556
0.2978238421
0.3067146021
0.3170569851
0.01180777846
0.02577958152
0.03901464032
0.05107020909
0.06209498303
0.07222329122
0.08158840691
0.09033649035
0.09863610457
0.1066980936
0.1147566171
0.1229773124
0.131382712
0.1398664686
0.1482638621
0.1564208514
0.1642332667
0.1716563418
0.1786962328
0.1853948315
0.191814863
0.1980282119
0.2041079263
0.2101232313
0.2161366288
0.2222023013
0.2283652912
0.23466118
0.2411161734
0.2477476422
0.2545652772
0.2615731281
0.2687729688
0.2761696985
0.2837799427
0.2916457666
0.2998566047
0.3085845641
0.3181428723
0.3290728942
0.01188850385
0.02600265053
0.03942236083
0.0516649684
0.06286838819
0.07316366446
0.08268533272
0.09158467508
0.1000391206
0.108274287
0.1165397166
0.1250011226
0.1336603298
0.142381966
0.1509791837
0.1592897127
0.1672138379
0.1747189671
0.1818261683
0.1885916375
0.1950902169
0.2014033835
0.2076115503
0.213789569
0.2200042633
0.2263131155
0.2327635775
0.2393927677
0.24622752
0.25328488
0.2605732401
0.2680943913
0.2758468934
0.2838313859
0.2920588241
0.300563262
0.3094218262
0.3187864027
0.3289361266
0.3403517795
0.01196592477
0.02621782155
0.03981702387
0.05224119077
0.06361736742
0.07407326786
0.08374474959
0.09278840603
0.101390891
0.1097933964
0.1182611562
0.1269578029
0.1358606989
0.1448032027
0.1535770318
0.162014437
0.170023314
0.1775856084
0.1847384557
0.1915524518
0.1981139743
0.2045132115
0.210837029
0.2171651031
0.2235679301
0.2301057774
0.2368280754
0.2437730762
0.2509678124
0.2584285103
0.2661616793
0.2741661571
0.2824364672
0.2909680057
0.2997648544
0.3088515552
0.3182910629
0.3282128691
0.338859961
0.3506513771
0.01203994049
0.0264248654
0.04019824301
0.05279832051
0.06434119256
0.07495119807
0.08476557531
0.0939464193
0.1026899732
0.1112538295
0.1199191478
0.1288450027
0.1379803429
0.1471253169
0.1560514895
0.1645888274
0.1726560636
0.180251782
0.1874299117
0.194275111
0.2008843664
0.2073554641
0.213780671
0.2202436059
0.226817735
0.2335655441
0.2405379485
0.2477738511
0.2552999626
0.2631310979
0.271271208
0.2797154191
0.2884533894
0.2974743872
0.3067747088
0.3163685067
0.3263038865
0.3366878653
0.3477286749
0.3597878785
0.01211050743
0.02662367876
0.0405658342
0.05333609291
0.06503952909
0.07579706292
0.08574737279
0.09505824891
0.1039358973
0.1126551672
0.1215132941
0.1306619866
0.1400176739
0.149345743
0.1583995167
0.1670102654
0.1751107567
0.1827179637
0.1899028716
0.1967634495
0.203406075
0.209934852
0.21644632
0.2230271281
0.2297529936
0.236688032
0.2438841135
0.2513802583
0.2592022757
0.2673629244
0.2758628881
0.2846928344
0.2938368134
0.3032772986
0.3130023192
0.3230155348
0.3333508336
0.344094767
0.3554253346
0.367655377
0.01217763432
0.0268142744
0.04091980202
0.05385451657
0.06571241434
0.07661095539
0.0866903191
0.09612418981
0.1051291217
0.1139981083
0.1230445202
0.1324095515
0.1419729011
0.1514641216
0.1606208556
0.1692795878
0.1773901835
0.1849893338
0.1921648683
0.1990269431
0.2056898892
0.2122627564
0.218845216
0.2255260579
0.2323825577
0.239479886
0.2468703366
0.2545925046
0.2626707099
0.2711150167
0.2799221724
0.2890777324
0.2985595774
0.3083430304
0.318407883
0.3287480062
0.3393849286
0.3503885175
0.3619134507
0.3742356593
0.01224137652
0.02699676918
0.04126032167
0.05435384905
0.06636022588
0.07739341357
0.08759515553
0.09714523581
0.1062709555
0.1152843722
0.1245149508
0.1340898759
0.1438478587
0.1534821093
0.1627178082
0.171400801
0.1795008739
0.1870752867
0.1942280399
0.2010800449
0.2077520101
0.214356546
0.220995368
0.2277585904
0.2347244212
0.2419585639
0.2495132463
0.2574261329
0.265719515
0.2744001958
0.2834604296
0.2928801767
0.3026308375
0.3126805918
0.3230015373
0.3335791746
0.344425491
0.3555986695
0.3672383735
0.379596902
0.01230182964
0.02717137046
0.04158771797
0.05483456721
0.0669836419
0.07814536922
0.08846312195
0.09812299661
0.1073634541
0.1165165665
0.125927743
0.135706314
0.145645765
0.1554031028
0.164694905
0.1733806574
0.1814525479
0.1889887414
0.1961083115
0.2029412627
0.2096130535
0.2162385319
0.2229204804
0.229749638
0.2368046238
0.2441512408
0.251841242
0.2599109404
0.2683801598
0.2772520056
0.2865138517
0.2961398018
0.3060947499
0.3163400968
0.3268412288
0.3375772115
0.3485538796
0.3598232767
0.3715187113
0.3838820902
0.0123591229
0.02733836145
0.04190244187
0.05529733366
0.06758359545
0.07886808749
0.089295879
0.09905959844
0.1084092929
0.1176980268
0.1272868848
0.1372631494
0.1473709332
0.1572319019
0.1665584935
0.1752281285
0.1832574415
0.1907453116
0.1978244185
0.2046320552
0.2112968361
0.2179346517
0.2246485322
0.2315292928
0.2386555755
0.2460929686
0.2538924545
0.2620886959
0.2706987497
0.2797217542
0.289140017
0.2989217619
0.3090256232
0.3194068871
0.3300255134
0.3408563295
0.3519025433
0.3632154759
0.3749301312
0.3872899507
0.01241341222
0.02749808597
0.04220504591
0.05574296083
0.06816122487
0.07956310091
0.09009542228
0.0999575742
0.1094116277
0.1188326402
0.1285969729
0.1387653242
0.1490284548
0.1589743385
0.1683162801
0.1769538186
0.1849295643
0.1923624006
0.1993968513
0.2061756401
0.2128290529
0.2194730088
0.2262101565
0.2331310132
0.2403140075
0.2478243369
0.2557120544
0.264010017
0.272732376
0.281874214
0.2914127886
0.3013106386
0.3115206081
0.3219927332
0.3326829687
0.3435640942
0.354639948
0.3659658351
0.3776851066
0.3900523112
0.01246487341
0.02765093328
0.04249615909
0.05617237405
0.06871782249
0.08023214074
0.09086399286
0.1008197486
0.110373949
0.1199246616
0.1298629848
0.1402181633
0.1506238783
0.1606368984
0.1699768606
0.1785693643
0.1864839454
0.1938582955
0.2008468086
0.2075958161
0.2142359647
0.2208824048
0.2276369852
0.2345897338
0.2418187912
0.2493889363
0.2573492792
0.2657308682
0.2745449707
0.2837826949
0.2934164395
0.3034034206
0.3136913022
0.3242258146
0.3349602881
0.3458673921
0.3569542478
0.3682837002
0.3800121292
0.3924116464
0.01251369566
0.0277973232
0.04277646238
0.05658657504
0.06925478359
0.08087706856
0.09160398799
0.1016491243
0.1112999381
0.1209785329
0.131090055
0.1416271092
0.1521629041
0.1622263625
0.171549272
0.1800868605
0.1879359209
0.195251323
0.2021952363
0.2089158902
0.2155432019
0.2221909951
0.2289601143
0.2359400912
0.2432088649
0.2508309167
0.2588545465
0.2673091351
0.2762032333
0.2855241963
0.2952398781
0.30530263
0.3156555843
0.3262410526
0.3370109042
0.3479391664
0.3590380395
0.3703800391
0.3821369964
0.3946015766
0.01256007531
0.02793769223
0.04304666523
0.05698660694
0.06977355747
0.0814998106
0.09231787584
0.1024487728
0.112193331
0.121998715
0.1322832703
0.1429974812
0.1536511131
0.1637494894
0.1730425918
0.1815183497
0.189300508
0.1965591225
0.2034620145
0.2101577806
0.2167747699
0.2234251656
0.2302088124
0.2372149157
0.2445214537
0.2521928759
0.2602769414
0.2688016357
0.277773077
0.2871751832
0.2969716389
0.3071103908
0.3175306084
0.3281718655
0.3389853463
0.3499472578
0.3610756649
0.372453376
0.3842678705
0.396832053
0.01260421028
0.02807248062
0.04330748384
0.05737352173
0.07027560194
0.08210229704
0.09300811698
0.1032217362
0.1130577962
0.1229895367
0.1334474892
0.1443342702
0.1550937408
0.1652127511
0.1744656039
0.1828753958
0.1905918931
0.1977980687
0.2046653296
0.2113413385
0.2179523039
0.2246086913
0.2314095456
0.2384440793
0.2457906974
0.2535142185
0.2616622564
0.2702617829
0.2793168502
0.2888082959
0.29869599
0.3089238338
0.3194273894
0.3301438186
0.3410238636
0.352045979
0.3632338452
0.3746797803
0.386585172
0.3992800702
0.01264629499
0.02820212075
0.04355962138
0.05774835066
0.07076234211
0.08268640747
0.09367709476
0.1039709399
0.1138968281
0.1239550675
0.1345871919
0.145641974
0.1564955026
0.1666221323
0.17582654
0.1841687567
0.19182305
0.1989828591
0.2058212459
0.2124839018
0.2190945872
0.2257621922
0.2325853385
0.2396537296
0.2470467219
0.2548300316
0.263051636
0.2717379615
0.2808914032
0.2904900526
0.3004902109
0.3108318738
0.3214470086
0.3322702143
0.3432514202
0.3543706355
0.3656559627
0.3772072524
0.3892365109
0.4020856959
0.01268651591
0.02832702685
0.04380375042
0.05811207792
0.07123513418
0.08325392346
0.0943270555
0.1046991199
0.1147136601
0.1248990144
0.1357063626
0.1469244742
0.1578604723
0.1679829902
0.1771328961
0.1854081551
0.1930054864
0.200126262
0.2069434683
0.2136000679
0.2202173164
0.226902867
0.2337554515
0.2408658851
0.2483151289
0.2561704465
0.2644807881
0.2732725643
0.2825469194
0.2922794396
0.3024228964
0.3129131937
0.3236782751
0.3346494905
0.3457749697
0.357034886
0.3684597628
0.3801540329
0.3923358325
0.4053522314
0.01272504784
0.0284475861
0.04404049749
0.05846561772
0.07169523405
0.08380648826
0.09496005881
0.1054087629
0.1155111951
0.1258246419
0.1368084026
0.1481849532
0.1591920085
0.169299972
0.1783913181
0.1866021382
0.1941491062
0.2012390064
0.2080432692
0.2147016516
0.2213330742
0.2280444611
0.2349353227
0.2420983331
0.2496168353
0.2575604044
0.2659796617
0.2749015646
0.2843263598
0.294227203
0.3045530871
0.3152352359
0.3261966576
0.3373642304
0.3486827268
0.3601304763
0.3717377296
0.3836097478
0.3959653831
0.409148956
0.01276205064
0.02856415093
0.04427042964
0.05880979431
0.07214377058
0.0843455731
0.09557793716
0.1061020598
0.116291953
0.1267347137
0.1378960688
0.1494258444
0.1604927209
0.1705769768
0.1796075436
0.1877580129
0.1952621673
0.2023297871
0.209129547
0.2157977883
0.2224514624
0.2291974116
0.236136712
0.2433647604
0.250968179
0.2590197286
0.2675724731
0.2766544832
0.2862653601
0.2963756801
0.3069300665
0.3178540462
0.3290642981
0.3404814995
0.3520449797
0.3637286566
0.3755591957
0.3876382387
0.4001792052
0.4135151371
0.01279766657
0.02867703244
0.04449404283
0.05914532476
0.07258172274
0.08487244925
0.09618226343
0.1067808698
0.117058032
0.1276314521
0.1389714347
0.1506488083
0.1617644672
0.1718171507
0.1807863842
0.1888818354
0.1963513104
0.2034053521
0.2102089751
0.2168951356
0.2235793421
0.2303691147
0.2373679837
0.2446750436
0.2523812091
0.2605634059
0.2692779721
0.2785546343
0.2883924652
0.2987590574
0.3095937174
0.3208148318
0.3323308918
0.3440541607
0.3559159393
0.3678826338
0.3799734285
0.392281253
0.4050073136
0.4184644866
0.01283201811
0.02878649476
0.04471175156
0.05947280372
0.07300989989
0.08538816449
0.09677432469
0.1074466922
0.1178110798
0.1285165082
0.1400358637
0.1518547251
0.1630083668
0.1730228999
0.1819317317
0.1899784352
0.1974216329
0.2044706421
0.2112862056
0.2179981313
0.2247211352
0.231564261
0.2386344699
0.2460356339
0.2538640887