/*--------------------------------*- C++ -*----------------------------------*\
| =========                 |                                                 |
| \\      /  F ield         | foam-extend: Open Source CFD                    |
|  \\    /   O peration     | Version:     3.2                                |
|   \\  /    A nd           | Web:         http://www.foam-extend.org         |
|    \\/     M anipulation  | For copyright notice see file Copyright         |
\*---------------------------------------------------------------------------*/
FoamFile
{
    version     2.0;
    format      ascii;
    class       volScalarField;
    location    "0.12";
    object      sProd;
}
// * * * * * * * * * * * * * * * * * * * * * * * * * * * * * * * * * * * * * //

dimensions      [0 2 -3 0 0 0 0];

internalField   nonuniform List<scalar> 
18000
(
11.6266639
16.06639222
20.32863159
23.6498049
26.38383058
28.85391008
31.26331703
33.72810024
36.31216725
39.04950915
41.9566826
45.03961913
48.29734165
51.72407805
55.31056038
59.04491017
62.91330529
66.9005201
70.9903803
75.16615141
79.41087075
83.70762798
88.03979808
92.39123221
96.74640977
101.0905559
105.4097251
109.6908537
113.9217827
118.0912518
122.1888706
126.205068
130.1310345
133.9586874
137.6807214
141.2908543
144.7844671
148.1598303
151.4215395
154.4468183
11.51042029
9.810640899
9.366851843
9.328420111
9.50804373
9.841700624
10.28847872
10.82187671
11.4226864
12.07653287
12.7725468
13.50240761
14.25964018
15.03910655
15.83663556
16.64875016
17.47246685
18.30514893
19.14440105
19.98799546
20.83382253
21.67986011
22.5241574
23.36483
24.20006327
25.02812103
25.84735761
26.65623297
27.45333134
28.23738394
29.00729726
29.76219108
30.50145395
31.22482108
31.932481
32.62519457
33.30456663
33.97461922
34.57746933
35.71168153
16.16974238
14.73245682
14.183852
13.92704326
13.80031181
13.76415405
13.7908998
13.86565465
13.97921845
14.12491546
14.29757969
14.49296096
14.70738543
14.93758334
15.18061008
15.43381109
15.69480371
15.96146157
16.23189631
16.50443558
16.7775989
17.05007341
17.32069136
17.58840984
17.85229394
18.11150326
18.36528243
18.61295605
18.85392873
19.08769275
19.3138494
19.53215895
19.74265353
19.94587895
20.14339968
20.33880988
20.53937188
20.76696716
20.909606
21.62911531
15.48999606
14.43861051
14.03322141
13.82754713
13.71227273
13.66484672
13.66272554
13.69436382
13.75238966
13.83140196
13.92716937
14.03616508
14.15532531
14.28194233
14.41363068
14.54832279
14.68426835
14.82002534
14.95444025
15.08661951
15.21589577
15.34179247
15.46398973
15.58229306
15.69660615
15.80690854
15.91323849
16.01568151
16.11436415
16.2094537
16.30116194
16.38974927
16.47551809
16.55878042
16.63973625
16.71851134
16.79308178
16.8766445
16.8071491
17.38491447
15.92030962
15.20213533
14.91393428
14.75732904
14.67372314
14.65412935
14.67949633
14.74005611
14.82880985
14.94040956
15.07048099
15.21526469
15.37142096
15.53595066
15.70618031
15.87977021
16.05472102
16.2293674
16.40235747
16.57262139
16.73933369
16.90187397
17.05978913
17.21275931
17.36056886
17.50308326
17.64023228
17.77199994
17.89842165
18.01959107
18.13568021
18.24697934
18.35396033
18.45739156
18.55837154
18.65908333
18.75873788
18.88243111
18.85827617
19.3430036
15.79326096
15.29500256
15.09963507
14.98386174
14.92502836
14.92229265
14.95993699
15.03001675
15.12611995
15.2432255
15.37708155
15.52394674
15.68043269
15.84345465
16.01024137
16.17836362
16.34575538
16.51071654
16.67189621
16.82826165
16.97905872
17.12376952
17.2620715
17.39380057
17.51892003
17.63749611
17.74968025
17.85569763
17.95584034
18.05046363
18.13998096
18.22485357
18.30555514
18.38256626
18.45609075
18.52728119
18.59135584
18.67777158
18.60625861
19.09345609
15.72387324
15.3958479
15.28563484
15.21589664
15.19061943
15.21526384
15.27747123
15.37100423
15.49006136
15.62998177
15.78667418
15.95645578
16.13592401
16.32193415
16.5116333
16.70250964
16.89242899
17.07964634
17.26279233
17.44084095
17.6130662
17.77899463
17.93835906
18.09105664
18.23711319
18.37665474
18.50988603
18.63707551
18.7585456
18.87466903
18.98586958
19.09263181
19.19549675
19.29515175
19.39206609
19.48840972
19.57840921
19.69767827
19.65417752
20.1167106
15.58239461
15.37341321
15.33297019
15.30592731
15.31344009
15.36501489
15.45116176
15.56704347
15.7073747
15.86779147
16.04431652
16.23327987
16.43121006
16.63483714
16.84115346
17.04748878
17.25156688
17.45152972
17.64592938
17.8336957
18.01408966
18.18665101
18.35114669
18.50752398
18.65587082
18.79638386
18.92934366
19.05509574
19.1740349
19.28659226
19.39321997
19.49437841
19.59049248
19.68204972
19.76908938
19.85378636
19.92886588
20.03392687
19.97409953
20.44022545
15.43059686
15.30719743
15.32641024
15.34130696
15.38329161
15.46447198
15.57782525
15.71968651
15.88524755
16.07042965
16.27138109
16.48446082
16.70614035
16.93303086
17.16197463
17.39015121
17.61515871
17.83505284
18.04834465
18.25396686
18.45122156
18.63972012
18.81932329
18.99008641
19.1522125
19.306014
19.45188216
19.59026292
19.72163743
19.84650785
19.96538471
20.07878534
20.18719893
20.29123211
20.39098534
20.48905504
20.57726892
20.69775166
20.64948456
21.10765943
15.25978679
15.19517616
15.26366023
15.31755202
15.39317229
15.50400302
15.64497827
15.81332981
16.00463258
16.21503306
16.4407695
16.67819445
16.92367678
17.17365207
17.42475005
17.67393897
17.91863704
18.15676917
18.38677033
18.60754885
18.81842573
19.01906383
19.20939719
19.38956625
19.55986271
19.72068435
19.87249889
20.01581516
20.15115977
20.27905943
20.4000241
20.51454358
20.62304787
20.72608638
20.82364981
20.91855146
21.0022093
21.11888675
21.06619494
21.52598676
15.0798764
15.05469783
15.16399025
15.25407118
15.3624024
15.50293147
15.67206709
15.8676931
16.08568251
16.32235989
16.5740332
16.83702831
17.10758102
17.38191181
17.65639783
17.92776524
18.19323753
18.4506126
18.69827099
18.93513302
19.16058568
19.37439718
19.5766319
19.76757319
19.94765808
20.1174244
20.27746891
20.42841488
20.57088744
20.70549704
20.83282602
20.9534319
21.06781116
21.17659816
21.27982793
21.38050455
21.46967288
21.59260182
21.54463106
22.00072776
14.89322435
14.89306647
15.0357617
15.15882329
15.29826843
15.4678133
15.66487633
15.88775959
16.13253632
16.39565136
16.67344902
16.9621901
17.2579235
17.55658888
17.8542452
18.14732293
18.43281657
18.70838361
18.97235481
19.22367967
19.46183498
19.68671906
19.89854804
20.09776316
20.28495368
20.4607957
20.62600494
20.78130141
20.92738411
21.06491549
21.19451003
21.31674244
21.43211662
21.54128727
21.64430988
21.74436509
21.83248342
21.95481724
21.90668063
22.36093113
14.70342188
14.71795789
14.88794447
15.04088935
15.20971706
15.40740398
15.63196277
15.88190739
16.15341666
16.44300203
16.74701221
17.06160145
17.38257131
17.70550907
18.02608944
18.34040157
18.64519366
18.93799392
19.21711759
19.48159335
19.73104565
19.96556242
20.18556808
20.39171288
20.58478313
20.76563218
20.93512925
21.09412339
21.24342005
21.38376929
21.51585908
21.64032932
21.75774495
21.86882725
21.97368684
22.07561443
22.1656126
22.29012954
22.24470447
22.69402508
14.51257788
14.53454039
14.7267952
14.90667946
15.10307247
15.32784857
15.57925313
15.85583025
16.1537717
16.4696026
16.79963998
17.13987927
17.48579856
17.832546
18.17533665
18.50987189
18.83264297
19.14107126
19.43350313
19.70910635
19.96771612
20.20966846
20.43564514
20.64654245
20.84336842
21.02716664
21.19896268
21.35972903
21.51036506
21.65168986
21.78444075
21.90929373
22.02684354
22.13784782
22.24246568
22.34409391
22.43387497
22.55842879
22.51472603
22.95835431
14.32212104
14.34658411
14.55706944
14.76122054
14.98341988
15.23419361
15.51171646
15.81440665
16.13838185
16.48013149
16.83590265
17.20147039
17.57189975
17.94180257
18.30585783
18.659343
18.99850172
19.32069629
19.62437722
19.90893509
20.17449844
20.42172465
20.6516124
20.86534892
21.06419503
21.2494043
21.42216988
21.58359355
21.73467176
21.87629538
22.00925515
22.13426895
22.25196803
22.36314829
22.46801549
22.57002877
22.66048242
22.78588128
22.7451969
23.18106138
14.13267255
14.15644303
14.38194174
14.60797452
14.85432104
15.13000182
15.43287321
15.76109422
16.11062742
16.47787989
16.85898679
17.2494291
17.64375352
18.03592813
18.42002097
18.79086403
19.14448624
19.47826538
19.79085328
20.08196513
20.35211548
20.60235843
20.83406439
21.04874599
21.24793354
21.43309292
21.60557652
21.76659951
21.91723442
22.05841963
22.19097291
22.31562654
22.43302174
22.54396848
22.64870831
22.7507499
22.84161999
22.96759064
22.93043779
23.35717271
13.94429308
13.96543729
14.20340102
14.4492112
14.71816641
15.01769139
15.34512712
15.69826039
16.07282399
16.46509875
16.87106133
17.28581158
17.70325704
18.11660762
18.51925406
18.90558434
19.27147727
19.61443304
19.93342908
20.22862525
20.50102355
20.75215066
20.9837978
21.19782808
21.39604707
21.58012459
21.7515547
21.91164336
22.06151479
22.20213077
22.33431385
22.45879096
22.57619638
22.68733815
22.79248279
22.89516283
22.98717324
23.11439602
23.08204202
23.49787708
13.75666261
13.77413744
14.02254418
14.28627666
14.57641509
14.89874849
15.24995023
15.62733923
16.02635
16.44309537
16.87334119
17.31170395
17.75131577
18.18451106
18.60395244
19.00361632
19.37933333
19.72886744
20.05167087
20.34848096
20.62088967
20.87096388
21.10095036
21.31307016
21.50939109
21.69176027
21.86177886
22.02080543
22.16997708
22.31024151
22.44239103
22.56711535
22.6850143
22.79687117
22.9029667
23.00684453
23.1006301
23.22970958
23.20343655
23.60652172
13.56925412
13.58262845
13.83986132
14.11987151
14.42986226
14.77398441
15.14812987
15.549069
15.97187542
16.41245406
16.86630078
17.32743006
17.78804826
18.23949964
18.67369219
19.08426265
19.46713802
19.8205225
20.14451352
20.44056491
20.71095459
20.95834199
21.18544422
21.39482652
21.58878607
21.76930344
21.93803847
22.09635392
22.24535422
22.38593195
22.51881348
22.6446212
22.76389637
22.87737858
22.98535475
23.09136676
23.18792895
23.31981557
23.30123404
23.68915581
13.38145352
13.39070161
13.65544936
13.9502632
14.27884658
14.64373714
15.03996385
15.4636807
15.90954349
16.37321087
16.84984172
17.33271239
17.81294141
18.28077797
18.7273827
19.14617193
19.53335938
19.88779841
20.2104164
20.50351959
20.77015187
21.01359399
21.23702207
21.44330665
21.63491951
21.81391303
21.98194382
22.14032062
22.29006296
22.43196291
22.56664253
22.69462533
22.81636972
22.93255395
23.04346719
23.15264421
23.2530617
23.38877389
23.3796284
23.7492586
13.19263464
13.19798582
13.46916347
13.77744051
14.12340445
14.50802468
14.92541243
15.37104867
15.83911997
16.32500178
16.82344027
17.32681961
17.8250001
18.30704912
18.7634312
19.18751556
19.57603941
19.92874116
20.24756749
20.53579903
20.79729974
21.03596972
21.25540229
21.45870802
21.64845748
21.82669822
21.995012
22.15459029
22.3063139
22.45083001
22.58862092
22.72008384
22.84557488
22.9656985
23.08074747
23.19424844
23.29972076
23.44038106
23.44256469
23.78974173
13.00219823
13.00402953
13.28071607
13.60121692
13.96337536
14.36665144
14.80420565
15.27079904
15.76010292
16.2671741
16.78626084
17.308683
17.82286862
18.31664449
18.77988406
19.20614197
19.59295928
19.94121323
20.25405148
20.53582492
20.79123628
21.0247661
21.24035042
21.44124849
21.6300357
21.80866699
21.97857247
22.14076224
22.29592682
22.4445283
22.58687876
22.72322713
22.85381326
22.97916094
23.09957367
23.21857498
23.33031585
23.47704986
23.49251018
23.81181939
12.80958851
12.80834925
13.08973923
13.42129762
13.7984718
14.21928061
14.67591818
15.16238737
15.67180353
16.19887107
16.737245
17.27699104
17.80493317
18.30763733
18.77455427
19.19971771
19.58179031
19.9230472
20.22799676
20.50211753
20.75092582
20.97940315
21.19172107
21.39117354
21.58023347
21.7606701
21.93368581
22.10005
22.26021854
22.41443651
22.56282392
22.7054677
22.8424851
22.97431905
23.1012968
23.22694827
23.34614777
23.50004697
23.53071869
23.81527825
12.61429793
12.61045816
12.89582435
13.23732378
13.62832675
14.06548453
14.54002285
15.04515587
15.57340781
16.1190987
16.67518419
17.23026918
17.76941114
18.27794473
18.74513758
19.16585626
19.54022936
19.87217871
20.16769568
20.43339374
20.67552761
20.89945858
21.10945707
21.30872056
21.49950581
21.68330488
21.86102344
22.03314108
22.19984617
22.36114639
22.51695866
22.66720373
22.81187808
22.95135048
23.08598978
23.21934529
23.34710403
23.50916109
23.55686204
23.79817707
12.41586645
12.40988279
12.69854779
13.04890254
13.45252698
13.90478104
14.39593066
14.91837778
15.46402588
16.02678091
16.59878161
17.16694989
17.7144317
18.2254215
18.68932038
19.10223608
19.46611939
19.78675928
20.0716993
20.32863524
20.56443189
20.78466985
20.99355825
21.19405768
21.38809675
21.57680824
21.7607456
21.94006481
22.11466916
22.28432272
22.44874065
22.60768378
22.76103791
22.9091106
23.0523337
23.19428957
23.33155774
23.50260091
23.56890863
23.75678707
12.21388007
12.20617431
12.49748938
12.85562947
13.27063885
13.73666264
14.24302369
14.78129476
15.34273493
15.92080886
16.50670877
17.08543771
17.63811205
18.14794977
18.60488174
19.00670986
19.35755664
19.6652505
19.93888887
20.18713064
20.41726978
20.63491238
20.84403137
21.04721028
21.24594837
21.44095363
21.63239112
21.82007872
22.00363483
22.18258902
22.35646871
22.52489098
22.68764842
22.84500508
22.99747839
23.14869495
23.29618946
23.4767888
23.56288056
23.6854428
12.00796949
11.99891637
12.29224622
12.65710624
13.08222917
13.56062054
14.08068308
14.63314956
15.20861742
15.80008561
16.39765753
16.98417024
17.53862953
18.04352383
18.48978895
18.87740354
19.21298267
19.50649856
19.7685247
20.0084946
20.23390275
20.45016287
20.66083293
20.86799006
21.07262233
21.27497083
21.47479965
21.67159577
21.86471145
22.053466
22.23722459
22.41548511
22.58796977
22.75491934
22.9169578
23.07776029
23.23585542
23.42619374
23.53264916
23.57646842
11.79780969
11.78773132
12.08244367
12.45295514
12.88688286
13.37616562
13.9083138
14.47321554
15.06079617
15.6635677
16.27038892
16.8616755
17.41429004
17.91033039
18.34228575
18.71280409
19.03126078
19.30978972
19.56027501
19.7926692
20.01439996
20.23045889
20.44381882
20.65594227
20.86725153
21.07750683
21.28608462
21.49217021
21.69488591
21.89337791
22.08688363
22.27481181
22.45683961
22.63320416
22.80465215
22.97489996
23.14347944
23.34317706
23.46974254
23.42018886
11.58312052
11.57228533
11.86774461
12.2428316
12.68421846
13.18284704
13.72536704
14.30082348
14.89846658
15.51030357
16.12377852
16.71662571
17.26359214
17.7468229
18.16097186
18.51183445
18.81173595
19.07488754
19.31422795
19.53991347
19.75901203
19.9758659
20.19271372
20.4103258
20.62853697
20.84664323
21.06367256
21.27855774
21.49024155
21.69774337
21.90021237
22.09699977
22.28776193
22.47274777
22.65283467
22.83175669
23.01002586
23.21792021
23.36324607
23.20514905
11.36366759
11.3522925
11.64785674
12.02643446
12.47390113
12.98026821
13.53135974
14.11538545
14.72092551
15.33946807
15.95685725
16.54788567
17.08528489
17.55178786
17.94487109
18.27391331
18.55427672
18.802052
19.03088924
19.25078612
19.4681487
19.6864607
19.90711041
20.13013625
20.35479988
20.57997993
20.80441794
21.02685887
21.24612558
21.46116086
21.6710651
21.87516077
22.07310246
22.26515851
22.45233378
22.63833599
22.82460218
23.03849621
23.19986987
22.91867578
11.13926364
11.12751815
11.42253866
11.80351465
12.25565384
12.76810071
13.32589169
13.91641576
14.52759673
15.15039295
15.76884727
16.35455533
16.87841867
17.3244016
17.6934865
17.99899845
18.25929904
18.49204256
18.71116961
18.92612746
19.14236765
19.36233915
19.5865066
19.81417907
20.04409515
20.27478972
20.50479735
20.73274917
20.95741032
21.1776951
21.39268919
21.60170751
21.80441287
22.00108952
22.19285306
22.38331808
22.57476304
22.79117454
22.9642886
22.54795982
10.90976985
10.89778148
11.19160456
11.57388207
12.02926649
12.54609579
13.10865991
13.70354863
14.31805236
14.94259228
15.55919166
16.13600507
16.64238708
17.06427558
17.40684047
17.68761178
17.92777159
18.14610615
18.35636467
18.56704441
18.78237847
19.00365168
19.23038126
19.46119267
19.69438378
19.92823986
20.16117798
20.39179093
20.61884394
20.84126254
21.05814133
21.26879723
21.47289928
21.67073064
21.86348661
22.05459916
22.24708397
22.46104693
22.63985537
22.08184138
10.67509665
10.66295694
10.95492722
11.33741052
11.79460255
12.31409296
12.87946952
13.47655164
14.09202914
14.71578163
15.32757666
15.89190195
16.37695788
16.77148776
17.08549701
17.34084457
17.561202
17.76595099
17.96812917
18.17490031
18.38906283
18.6106654
18.83830679
19.07001481
19.30375469
19.53766837
19.77014615
19.99981161
20.22547656
20.44610395
20.66080647
20.86889847
21.07003974
21.26448163
21.45345506
21.64010128
21.82805927
22.033044
22.20977135
21.51346106
10.43520464
10.42297536
10.71244039
11.09404139
11.5516042
12.07202666
12.63824202
13.23533591
13.84944045
14.46989158
15.07394662
15.62222733
16.08229333
16.44659988
16.73056667
16.96034337
17.16160589
17.35370928
17.54844867
17.75131209
17.96351089
18.18384993
18.41009001
18.6397813
18.87068114
19.10089702
19.32887574
19.55332712
19.77313969
19.98732286
20.19500057
20.39546558
20.5883405
20.77380277
20.95306602
21.12886297
21.30534577
21.49337265
21.65874399
20.84387117
10.19010475
10.17782402
10.46413957
10.84378547
11.30029509
11.81992987
12.38501989
12.97996152
13.59038232
14.20507397
14.79851018
15.32728394
15.75895752
16.09065848
16.34369177
16.54827562
16.73145867
16.91188887
17.09960834
17.29815193
17.50706809
17.72397663
17.94592736
18.17013761
18.394288
18.61655348
18.83550561
19.04997722
19.25894439
19.4614545
19.65662117
19.84368498
20.02219535
20.1922082
20.35486572
20.51237879
20.66932054
20.83133831
20.97509169
20.08656258
9.939857988
9.927545972
10.21008178
10.58672334
11.04078107
11.55793521
12.11996792
12.71063877
13.31513413
13.92170121
14.50173795
15.00769282
15.4079112
15.7051798
15.92701275
16.10727654
16.27363241
16.44331643
16.62415961
16.81755164
17.02138631
17.23222085
17.44655872
17.66144298
17.87460478
18.08437343
18.28949335
18.48893637
18.68175852
18.86702215
19.04379921
19.21124271
19.36879267
19.51634038
19.6549126
19.7861088
19.91486241
20.04144553
20.15317611
19.27261461
9.68457477
9.672239004
9.950384608
10.32300444
10.77324935
11.28627386
11.84337147
12.42772538
13.02415403
13.62035895
14.18435207
14.66438059
15.03049446
15.29211929
15.48311705
15.64037964
15.79132069
15.95107414
16.12488483
16.31190639
16.5084718
16.7102545
16.91340233
17.11494504
17.31277836
17.50545246
17.69191098
17.87126184
18.0426197
18.20503157
18.35749569
18.49904786
18.62899446
18.74703756
18.85406985
18.95103771
19.04321689
19.12561313
19.19598443
18.45567746
9.424413741
9.412053769
9.685224138
10.05284491
10.49796576
11.00527191
11.55563154
12.13171962
12.71806908
13.30183222
13.84730789
14.29855744
14.62839781
14.85382657
15.01497205
15.15093346
15.28795432
15.43843168
15.60475905
15.78387305
15.97072099
16.16031604
16.34865428
16.53290456
16.71122171
16.88242092
17.04565218
17.20014385
17.34504324
17.47935562
17.60198591
17.71184364
17.80810538
17.89029642
17.95920112
18.01514697
18.06378692
18.09532463
18.11767892
17.71503378
9.159580102
9.147191487
9.414832241
9.776524262
10.21527051
10.71534476
11.25725717
11.82324979
12.39766087
12.96708588
13.49176903
13.91168739
14.20362352
14.3929881
14.52584559
14.64250877
14.76711197
14.90877629
15.06690896
15.23636024
15.41093785
15.58524844
15.7553401
15.91865615
16.07368247
16.21952344
16.35553019
16.48103338
16.59519547
16.69697283
16.78518706
16.85865164
16.91646573
16.95805011
16.98417445
16.99468922
16.99572423
16.97357902
16.94599096
17.15345587
8.890323596
8.877901255
9.139493261
9.494381199
9.925572782
10.41698981
10.94885551
11.50306083
12.06384738
12.61724057
13.11907717
13.50545265
13.75843924
13.91256047
14.01921783
14.118801
14.23243024
14.36554354
14.51456935
14.67250753
14.83232806
14.98849892
15.13731213
15.27659836
15.40522499
15.52259657
15.62825874
15.72163828
15.80192066
15.86804455
15.91880891
15.95302386
15.96983715
15.96872493
15.95063241
15.91521872
15.86927349
15.79659785
15.72442831
16.88541542
8.616936013
8.604476859
8.859540065
9.206808647
9.62934412
10.11077762
10.63111993
11.17199833
11.71766165
12.2535449
12.73071799
13.08171369
13.29532607
13.41569718
13.49868856
13.58353252
13.68751717
13.81215136
13.95103754
14.09565286
14.23846835
14.37407929
14.49919251
14.61211503
14.71213021
14.79895131
14.87232534
14.93179898
14.9766344
15.00584519
15.01834433
15.01312166
14.98960342
14.94760185
14.88855875
14.81241161
14.72690121
14.61530763
14.51426168
17.01361405
8.339748457
8.327253391
8.57534982
8.914248273
9.327111167
9.797342118
10.30481686
10.83099095
11.36022864
11.87734573
12.32828523
12.64246762
12.81692401
12.90567262
12.96788488
13.04035995
13.13587364
13.25194042
13.37962773
13.50928966
13.63325349
13.74649153
13.84626986
13.93144006
14.00172973
14.05718164
14.09778289
14.12327493
14.1331205
14.12658907
14.10295046
14.06168058
14.00285283
13.92705342
13.83670685
13.73271549
13.62418467
13.49643268
13.39581131
17.60078328
8.059128255
8.046603551
8.287339386
8.617184553
9.019447815
9.477370085
9.970771636
10.48103173
10.99274086
11.49005733
11.91344424
12.1898066
12.32597694
12.38580635
12.43037306
12.49279075
12.58082606
12.68812303
12.80362695
12.91701629
13.02082569
13.11062704
13.18436278
13.24148415
13.28219875
13.30692998
13.31599687
13.30948625
13.28728321
13.24921373
13.19528734
13.12593049
13.0424039
12.94668763
12.84284783
12.73363549
12.62998669
12.52220981
12.4671013
18.65303561
7.775475529
7.76293365
7.99596042
8.316138515
8.706966945
9.151590108
9.629853938
10.12315896
10.61643373
11.09313078
11.48789672
11.72587816
11.82527933
11.85939073
11.88957845
11.94411249
12.02547283
12.12374239
12.22625473
12.32248147
12.40549349
12.47165101
12.51966689
12.54964587
12.56233608
12.55864377
12.53938893
12.50525744
12.45690704
12.39517318
12.32135935
12.2374887
12.146725
12.0532123
11.96339709
11.88277157
11.82431274
11.78598918
11.83545324
20.12611496
7.489219798
7.476679745
7.701694635
8.011661648
8.39031239
8.820761877
9.282963542
9.758437645
10.23256198
10.68802509
11.05334841
11.25284953
11.31762702
11.32962465
11.34871692
11.39733776
11.47264654
11.5616437
11.65062882
11.7293305
11.79164821
11.83488439
11.85860234
11.86362874
11.85135733
11.82335334
11.78120978
11.72659652
11.66145147
11.58824851
11.51031889
11.43208428
11.35941455
11.29935055
11.2612067
11.25359058
11.29078453
11.37950877
11.59710345
21.94808769
7.200816164
7.188303401
7.405048744
7.704329566
8.070150723
8.485665394
8.931016266
9.387941481
9.842377099
10.27618026
10.61147998
10.77287624
10.80577235
10.79955451
10.81073859
10.85516499
10.92489109
11.00445606
11.07973695
11.1411544
11.18368351
11.20569241
11.20767434
11.19127948
11.15871809
11.11248806
11.05535475
10.99051097
10.92185283
10.85428645
10.79402238
10.74868758
10.72746153
10.74051044
10.7995928
10.91545252
11.10125539
11.37089822
11.8084692
24.04263616
6.910741559
6.898287601
7.106549647
7.394736036
7.747163563
8.147090939
8.574930954
9.012736316
9.447106871
9.858993359
10.1639224
10.2880763
10.29238494
10.27202386
10.27828566
10.31995531
10.38445289
10.45458426
10.51641493
10.56144459
10.58592301
10.58938693
10.57335531
10.54045626
10.49397429
10.43773102
10.37620678
10.31481224
10.26021978
10.2206316
10.20590152
10.22730871
10.29719433
10.42787438
10.63153092
10.91827888
11.29640169
11.78352616
12.46804143
26.34341441
6.619490994
6.607132745
6.806739816
7.083487336
7.42204042
7.805829827
8.215617628
8.633865266
9.047937261
9.437797845
9.712236906
9.800509773
9.780017821
9.749631838
9.753663362
9.793723723
9.853283418
9.914207978
9.963329711
9.993553275
10.00255787
9.991145327
9.961990718
9.918926097
9.866670797
9.810888088
9.758451273
9.717794113
9.699205097
9.714877089
9.778580852
9.904770949
10.10743734
10.39846195
10.78701395
11.27904147
11.87479819
12.59273704
13.52591819
28.7992131
6.327573856
6.315352777
6.506172946
6.771197076
7.095472224
7.462666166
7.853967001
8.252335669
8.645996698
9.013846093
9.257899445
9.312163434
9.271078402
9.234700013
9.238823471
9.278142102
9.333049964
9.385285399
9.42296571
9.440659264
9.43759458
9.415945137
9.379724464
9.334279446
9.286232213
9.243717951
9.216762139
9.217609178
9.260778112
9.362581515
9.539981314
9.808759352
10.181619
10.66649658
11.26623164
11.98030809
12.80016718
13.74397408
14.9121142
31.37348437
6.035510431
6.023471625
6.205410065
6.458481677
6.768145778
7.11836983
7.490841591
7.869108064
8.242342882
8.588295062
8.802289292
8.824940307
8.767804048
8.729247597
8.735358914
8.774551719
8.825151707
8.869558974
8.897612899
8.905738135
8.894811013
8.868509776
8.832432638
8.793838926
8.761811134
8.747643093
8.765228227
8.831159892
8.964222133
9.183996835
9.508650769
9.952306136
10.52301687
11.22197277
12.04416081
12.98248913
14.02083081
15.17693446
16.56136729
34.0414465
5.743828875
5.732020192
5.905016383
6.145956826
6.440739476
6.773691045
7.127068791
7.485087499
7.837952265
8.162195108
8.346682014
8.34065396
8.272242233
8.234975235
8.244508938
8.283983293
8.33073892
8.368561543
8.389355281
8.391534793
8.377716548
8.353255654
8.325646937
8.30452872
8.302038585
8.33325978
8.416424346
8.572468415
8.823585535
9.190692723
9.690329064
10.33192586
11.11658415
12.03782365
13.0832451
14.240431
15.48744248
16.84132858
18.42453769
36.7866199
5.453062703
5.441533978
5.605558968
5.834235032
6.113920417
6.429356706
6.763436019
7.101117237
7.433712162
7.736481759
7.892246602
7.861027876
7.786235888
7.753258099
7.767174197
7.807182935
7.850733447
7.883621191
7.900058056
7.900535218
7.889509012
7.874226619
7.864442521
7.872664265
7.914621266
8.009595095
8.180148934
8.450791994
8.845382081
9.383637776
10.07783393
10.9308589
11.93632877
13.0807897
14.34584422
15.71510783
17.16208033
18.70223537
20.47004218
39.59761992
5.163748998
5.152551544
5.307605503
5.523924566
5.788343298
6.086068849
6.40068839
6.717975269
7.030415801
7.31197069
7.440047535
7.387701234
7.311415769
7.285150083
7.303942141
7.34464339
7.385849749
7.415864269
7.431352271
7.434934177
7.433021399
7.435002362
7.453268706
7.503633859
7.605766384
7.783155561
8.062060726
8.469086744
9.027595485
9.7538864
10.65448967
11.72547041
12.95372375
14.32009417
15.80146067
17.37833124
19.02020958
20.73954798
22.68127986
42.46547123
4.876427709
4.865614239
5.011724609
5.215630377
5.464651724
5.744506063
6.039529786
6.336374582
6.628761187
6.889356819
6.991053454
6.922243927
6.849203321
6.831402331
6.85512455
6.896641834
6.936618079
6.966218317
6.98461786
6.996597267
7.010652573
7.038570253
7.095710298
7.20147289
7.379489543
7.656964405
8.062664341
8.623524324
9.360595503
10.28559572
11.39919468
12.69139707
14.14350286
15.73168996
17.42888713
19.21287851
21.04928821
22.94558986
25.05358305
45.38142987
4.591642082
4.581267237
4.718487849
4.909957203
5.143482348
5.405328358
5.680627995
5.956967935
6.229354498
6.469218325
6.546154704
6.466184859
6.400829006
6.392500741
6.420810741
6.463287962
6.503414544
6.535420515
6.560970423
6.587020681
6.62428174
6.6871574
6.794182228
6.968367589
7.236935027
7.629877336
8.177071709
8.904342931
9.829547288
10.95983962
12.29078888
13.80735007
15.48606902
17.29899531
19.2154818
21.21079576
23.24667318
25.32303705
27.59209915
48.33518903
4.309940515
4.300062262
4.428473918
4.607515558
4.825472712
5.069186674
5.324625344
5.580358732
5.832719568
6.052027455
6.106193998
6.021060598
5.967374456
5.96873068
6.000944476
6.044591631
6.086509199
6.124044279
6.161265055
6.207302027
6.275180883
6.382043794
6.549603098
6.804194765
7.175914452
7.696452841
8.395676395
9.297652651
10.41718609
11.75766002
13.31051987
15.05640304
16.96746238
19.01176692
21.15537931
23.37146153
25.61804334
27.88395608
30.31099087
51.31332056
4.031880146
4.022562379
4.142275561
4.308931369
4.511273895
4.73673845
4.972156629
5.207120138
5.439315634
5.638170839
5.672016902
5.588495226
5.549851137
5.560282097
5.595439072
5.64056755
5.686152888
5.732567008
5.78614117
5.858147109
5.963955255
6.123405249
6.361140973
6.706262046
7.190877873
7.847496529
8.705510492
9.787475493
11.10600255
12.66173207
14.44274354
16.42563925
18.57814504
20.86435698
23.24763748
25.70010743
28.17679429
30.65021702
33.23397734
54.29772933
3.758032148
3.749348917
3.860509474
4.014859843
4.201568927
4.408670732
4.623876317
4.837824804
5.04956582
5.227982859
5.244552205
5.170327035
5.149333432
5.167414641
5.204353811
5.251405629
5.302737428
5.361518679
5.436152032
5.539960899
5.690570462
5.910269513
6.22615629
6.66940175
7.273405079
8.071131712
9.0918064
10.35739095
11.87945391
13.65678963
15.67449613
17.90501805
20.31141598
22.85397612
25.49473411
28.20707068
30.94464306
33.65551563
36.3962671
57.26394715
3.488988933
3.481030883
3.583829807
3.726004521
3.897098478
4.08573298
4.280497983
4.47308895
4.663900405
4.821797968
4.824938314
4.768804164
4.767170949
4.790711731
4.828167698
4.87775184
4.937083005
5.011774073
5.112051782
5.2531096
5.454575763
5.740728001
6.140509707
6.686552626
7.41320578
8.354171977
9.539443251
10.99164587
12.72243946
14.72938821
16.99464577
19.48609288
22.16190499
24.97921122
27.90151272
30.90781069
33.95351306
36.94911868
39.84781454
60.17902061
3.225373145
3.218256898
3.312945595
3.443142348
3.598695299
3.768781986
3.9428495
4.113635492
4.282820126
4.420030191
4.414719272
4.386875549
4.405309544
4.431461995
4.468201833
4.521164758
4.590930624
4.685077438
4.815340404
4.998470945
5.255665512
5.612570062
6.099393855
6.749905724
7.599565328
8.683656589
10.03424978
11.67596513
13.6215284
15.86760459
18.39318893
21.16103372
24.1244727
27.23901609
30.47472601
33.82382207
37.2489128
40.60166761
43.65807358
62.99925646
2.967848024
2.961729438
3.048642247
3.167155397
3.30732891
3.458841641
3.61194843
3.760382487
3.906986747
4.023291671
4.016143873
4.02860059
4.066748422
4.092211872
4.127254177
4.184830788
4.267738636
4.384910791
4.549188075
4.778406631
5.094728367
5.524495162
6.098812538
6.85266979
7.823259851
9.048668609
10.56449879
12.39861846
14.56561981
17.06137159
19.86135262
22.92256544
26.19408827
29.63270367
33.22366796
36.98487808
40.89528117
44.7137026
47.92301154
65.66982229
2.717128567
2.712221067
2.791807125
2.899069876
3.024162171
3.15718089
3.289103352
3.414565532
3.537351099