/*--------------------------------*- C++ -*----------------------------------*\
| =========                 |                                                 |
| \\      /  F ield         | foam-extend: Open Source CFD                    |
|  \\    /   O peration     | Version:     3.2                                |
|   \\  /    A nd           | Web:         http://www.foam-extend.org         |
|    \\/     M anipulation  | For copyright notice see file Copyright         |
\*---------------------------------------------------------------------------*/
FoamFile
{
    version     2.0;
    format      ascii;
    class       volScalarField;
    location    "0.12";
    object      tpphi;
}
// * * * * * * * * * * * * * * * * * * * * * * * * * * * * * * * * * * * * * //

dimensions      [0 0 0 0 0 0 0];

internalField   nonuniform List<scalar> 
18000
(
0.2614231842
0.2267108466
0.1952453044
0.1700294638
0.1506725333
0.1357857035
0.1242074687
0.1150621491
0.1077207203
0.1017367856
0.09679188756
0.0926558344
0.0891595128
0.08617656579
0.08361102541
0.08138888143
0.07945224985
0.07775527264
0.07626118628
0.07494019264
0.0737678902
0.0727241033
0.0717919984
0.07095741041
0.07020832422
0.06953447169
0.06892701511
0.06837829547
0.06788163019
0.06743114889
0.06702165886
0.06664853609
0.06630764231
0.06599527766
0.06570819188
0.06544369618
0.06519994556
0.06497648186
0.06477522725
0.06459319993
0.3213804716
0.3152253918
0.3096202992
0.3050543233
0.301473284
0.29864632
0.2963883794
0.2945586232
0.2930519628
0.2917911576
0.2907193216
0.2897942047
0.2889840448
0.2882646724
0.2876175042
0.2870281404
0.2864853674
0.2859804347
0.2855065168
0.2850583042
0.2846316857
0.2842234975
0.2838313231
0.2834533317
0.2830881481
0.2827347465
0.2823923651
0.2820604357
0.2817385262
0.2814262943
0.2811234466
0.2808297029
0.2805447591
0.2802682414
0.2799996407
0.2797382078
0.279482783
0.279231508
0.2789822381
0.2787142524
0.3398254741
0.3373962074
0.3354175884
0.3339074257
0.3327976737
0.3319819923
0.3313919382
0.3309755941
0.3306936117
0.3305159004
0.33041912
0.330385112
0.3303995388
0.3304509662
0.3305302284
0.3306299575
0.3307442278
0.33086828
0.3309983044
0.3311312677
0.3312647736
0.331396948
0.3315263455
0.3316518713
0.3317727169
0.3318883057
0.3319982477
0.3321023014
0.3322003411
0.3322923292
0.3323782919
0.3324582973
0.3325324332
0.3326007835
0.3326633957
0.3327202332
0.3327711067
0.3328154612
0.3328558587
0.3328751651
0.3531882409
0.3514246347
0.3501076968
0.3491569514
0.3484848486
0.3480083297
0.3476823272
0.3474738261
0.3473578419
0.3473148106
0.3473290979
0.34738807
0.3474814425
0.3476008144
0.3477393196
0.3478913563
0.3480523714
0.3482186818
0.3483873254
0.3485559388
0.3487226558
0.3488860211
0.3490449192
0.3491985139
0.3493461967
0.3494875443
0.3496222822
0.3497502537
0.3498713942
0.3499857089
0.3500932541
0.3501941207
0.3502884208
0.3503762771
0.3504578164
0.3505331623
0.3506024964
0.3506658262
0.3507276346
0.3507762566
0.3640311953
0.3624155496
0.3612321607
0.3603983462
0.3598152598
0.3594054924
0.3591291317
0.3589572078
0.3588677776
0.3588433784
0.3588698088
0.3589353992
0.3590305359
0.3591473155
0.3592792711
0.3594211461
0.3595687036
0.3597185637
0.3598680635
0.360015138
0.3601582184
0.3602961446
0.3604280905
0.3605535008
0.3606720368
0.3607835306
0.3608879468
0.3609853496
0.3610758761
0.3611597131
0.3612370781
0.3613082027
0.3613733182
0.3614326428
0.3614863743
0.361534669
0.3615777571
0.3616155282
0.3616522201
0.3616766662
0.373657504
0.3721300291
0.3709874923
0.3701901501
0.3696395704
0.3692623049
0.3690192694
0.3688813585
0.3688261538
0.3688354877
0.3688943961
0.3689904878
0.3691135325
0.3692551469
0.3694085289
0.3695682254
0.3697299265
0.3698902847
0.3700467558
0.3701974619
0.3703410712
0.3704766952
0.3706038011
0.3707221358
0.3708316628
0.3709325087
0.3710249188
0.3711092203
0.3711857931
0.3712550458
0.371317397
0.3713732624
0.371423045
0.3714671296
0.3715058872
0.371539647
0.3715688491
0.3715933593
0.3716165554
0.3716244724
0.3824062889
0.380980148
0.3798752185
0.379109412
0.378592545
0.3782555494
0.3780589746
0.3779721472
0.3779708101
0.3780349312
0.3781478443
0.378295703
0.3784671096
0.3786528048
0.3788453862
0.379039045
0.3792293247
0.3794129022
0.3795873942
0.3797511868
0.3799032867
0.3800431941
0.3801707933
0.380286261
0.3803899891
0.3804825211
0.3805645006
0.3806366299
0.3806996368
0.3807542506
0.3808011824
0.3808411125
0.3808746816
0.3809024842
0.3809250749
0.3809429238
0.3809565861
0.3809657524
0.3809727679
0.3809601691
0.3904843974
0.389183614
0.3881335092
0.3874127757
0.3869446161
0.3866649792
0.3865336946
0.3865178885
0.3865907636
0.3867297881
0.3869160642
0.3871338807
0.3873703805
0.3876152481
0.3878603956
0.3880996538
0.3883284775
0.3885436729
0.3887431535
0.3889257245
0.3890908951
0.3892387183
0.3893696551
0.3894844613
0.3895840947
0.3896696398
0.3897422486
0.3898030944
0.3898533367
0.3898940966
0.3899264395
0.3899513643
0.3899697985
0.3899825929
0.38999053
0.3899942544
0.3899944125
0.3899903868
0.3899829576
0.3899497313
0.3979975502
0.3968388203
0.3958604816
0.39519957
0.3947954293
0.3945892106
0.3945397514
0.3946115104
0.3947746167
0.3950035478
0.3952767642
0.3955763792
0.3958878737
0.3961997747
0.3965033006
0.3967919891
0.3970613314
0.3973084287
0.3975316815
0.3977305151
0.3979051422
0.3980563614
0.39818539
0.3982937257
0.3983830368
0.3984550749
0.3985116083
0.3985543725
0.398585035
0.3986051707
0.3986162482
0.3986196212
0.3986165274
0.3986080846
0.3985953017
0.3985789891
0.3985598612
0.3985369695
0.398509551
0.398450056
0.4050225671
0.4040138269
0.4031195937
0.4025305857
0.4022033296
0.4020839167
0.4021298225
0.4023023518
0.4025680407
0.4028979068
0.4032673839
0.4036561316
0.4040478047
0.4044297224
0.4047924588
0.4051293903
0.4054362363
0.4057106239
0.4059516904
0.4061597348
0.4063359179
0.406482012
0.4066001956
0.4066928886
0.4067626238
0.406811949
0.4068433548
0.4068592237
0.4068617964
0.406853152
0.4068351979
0.4068096679
0.4067781261
0.4067419663
0.4067024237
0.4066604629
0.4066168217
0.4065701414
0.406517949
0.4064271925
0.4116205196
0.4107619725
0.4099589132
0.4094503557
0.409209814
0.4091876726
0.409339518
0.4096229264
0.4100002697
0.4104386043
0.4109099354
0.4113911893
0.4118640476
0.4123146051
0.4127328908
0.4131123093
0.4134490623
0.4137415921
0.4139900756
0.4141959815
0.414361695
0.4144902096
0.4145848789
0.4146492244
0.4146867886
0.4147010289
0.4146952433
0.4146725213
0.4146357159
0.4145874311
0.4145300196
0.4144655894
0.4143960155
0.4143229464
0.4142478192
0.4141717326
0.4140954358
0.4140171875
0.4139329523
0.4138045454
0.4178473618
0.4171337423
0.4164247531
0.4160023361
0.4158559801
0.4159394354
0.4162057208
0.4166080027
0.4171038475
0.4176557991
0.4182320024
0.4188063623
0.4193584573
0.4198731826
0.4203401803
0.4207531447
0.421109087
0.4214076249
0.4216503372
0.4218402059
0.4219811505
0.4220776524
0.4221344629
0.4221563812
0.4221480944
0.4221140667
0.4220584678
0.4219851315
0.4218975389
0.4217988163
0.4216917467
0.4215787874
0.421462093
0.4213435308
0.4212247009
0.4211067969
0.4209905423
0.4208738166
0.4207511554
0.4205798265
0.4237553171
0.4231780175
0.4225631994
0.4222307216
0.4221845386
0.4223806523
0.4227686965
0.423296638
0.4239165158
0.4245857506
0.4252681584
0.4259343248
0.4265616171
0.4271338053
0.4276403758
0.4280756569
0.4284378811
0.4287282756
0.4289502444
0.4291086688
0.4292093359
0.4292584908
0.4292624962
0.4292275878
0.4291597047
0.4290643816
0.4289466877
0.4288112006
0.4286620052
0.4285027108
0.4283364786
0.4281660561
0.4279938145
0.4278217766
0.427651646
0.4274846623
0.4273215004
0.4271597188
0.4269927228
0.4267742793
0.4293923974
0.4289412237
0.4284191646
0.4281794746
0.4282388116
0.4285541995
0.4290709484
0.4297309284
0.4304798434
0.4312693166
0.4320583262
0.4328138357
0.4335109238
0.4341323773
0.434667849
0.4351127481
0.4354670374
0.4357340726
0.4359195686
0.4360307322
0.436075571
0.4360623663
0.4359992913
0.4358941477
0.4357541981
0.4355860717
0.4353957233
0.4351884317
0.4349688237
0.4347409155
0.4345081634
0.4342735182
0.4340394814
0.4338081478
0.433581246
0.4333599954
0.4331449818
0.4329334964
0.4327181459
0.4324504685
0.4348009373
0.4344653273
0.4340340323
0.4338897099
0.4340598726
0.434501272
0.4351538459
0.4359523633
0.4368352958
0.4377477243
0.4386432409
0.4394848821
0.4402454069
0.4409068476
0.4414594595
0.4419002997
0.4422316829
0.4424597019
0.4425929307
0.4426413613
0.4426155797
0.4425261623
0.4423832578
0.4421963205
0.4419739578
0.4417238632
0.4414528101
0.441166685
0.4408705465
0.4405686989
0.4402647715
0.4399617985
0.4396622961
0.4393683239
0.43908154
0.4388030658
0.4385333591
0.4382695157
0.4380037428
0.4376868273
0.4400166173
0.43978637
0.4394438254
0.4393975759
0.439684164
0.4402587407
0.4410547206
0.441998659
0.4430208027
0.4440588725
0.4450604842
0.4459844507
0.4468012429
0.4474924789
0.4480495912
0.4484719953
0.4487651041
0.4489384509
0.4490040755
0.4489752374
0.4488654522
0.4486878172
0.4484545746
0.4481768587
0.4478645793
0.447526402
0.4471697908
0.4468010912
0.4464256349
0.446047853
0.4456713909
0.4452992167
0.4449337236
0.4445768105
0.4442299541
0.4438940891
0.4435694961
0.4432531407
0.4429372284
0.4425733057
0.4450681975
0.4449338255
0.4446782585
0.4447330602
0.4451420724
0.4458575
0.4468049864
0.4479016505
0.4490684227
0.450234768
0.4513416963
0.4523435179
0.4532085331
0.4539184254
0.4544665465
0.4548555446
0.4550948139
0.4551981261
0.4551816433
0.4550623816
0.4548571099
0.4545816207
0.4542502986
0.4538759097
0.4534695473
0.4530406813
0.4525972708
0.4521459117
0.4516919979
0.4512398836
0.4507930381
0.4503541873
0.4499254418
0.4495083996
0.4491042354
0.448713602
0.4483365502
0.4479699745
0.4476064515
0.4471997088
0.4499778982
0.4499307322
0.4497606641
0.4499197468
0.4504575243
0.4513219034
0.452429414
0.4536864058
0.4550032977
0.4563003235
0.4575112208
0.4585855515
0.4594896737
0.4602059878
0.4607307043
0.4610707621
0.4612405636
0.4612590066
0.4611470649
0.4609259866
0.4606160652
0.4602358862
0.4598019362
0.4593284714
0.4588275585
0.4583092219
0.4577816477
0.4572514123
0.4567237119
0.4562025815
0.4556910932
0.455191534
0.4547055594
0.4542343176
0.453778557
0.4533385504
0.4529140609
0.452501948
0.4520954505
0.4516516346
0.454762169
0.4547943207
0.4547085008
0.4549752255
0.4556482992
0.4566699773
0.4579462448
0.4593712382
0.4608435667
0.4622731756
0.4635858331
0.4647261576
0.4656589354
0.4663681436
0.4668540173
0.4671290459
0.4672138119
0.467133303
0.4669140049
0.4665818285
0.4661607822
0.465672238
0.4651346315
0.4645634564
0.463971441
0.4633688254
0.4627636809
0.4621622359
0.4615691848
0.4609879685
0.4604210206
0.4598699793
0.4593358671
0.4588192335
0.4583202784
0.4578388003
0.4573742124
0.4569233422
0.4564802453
0.45600604
0.4594326149
0.4595368716
0.4595341551
0.4599118481
0.4607267379
0.461914079
0.4633677954
0.4649682591
0.4666008668
0.4681641393
0.4695751542
0.4707734648
0.4717228328
0.4724099168
0.4728403989
0.4730337921
0.4730181685
0.4728256237
0.4724888334
0.472038723
0.4715030895
0.4709059512
0.4702674046
0.4696038025
0.468928114
0.4682503661
0.4675781033
0.4669168265
0.4662703894
0.4656413437
0.465031233
0.4644408364
0.4638703702
0.4633196452
0.4627882017
0.4622752774
0.4617798678
0.4612987184
0.4608266522
0.460328885
0.4639969216
0.4641666166
0.4642458254
0.4647375999
0.4657005996
0.4670617348
0.468701276
0.4704841757
0.4722811148
0.4739779765
0.4754824148
0.4767288939
0.4776809136
0.4783292035
0.478686596
0.4787813185
0.4786503639
0.4783339744
0.4778716308
0.4772995023
0.4766490937
0.4759467666
0.4752138349
0.4744669967
0.4737189294
0.4729789332
0.4722535543
0.4715471478
0.4708623674
0.4702005745
0.4695621753
0.4689468912
0.4683539758
0.4677823801
0.4672308921
0.4666981148
0.4661825503
0.4656807384
0.4651879348
0.46467258
0.4684596985
0.4686885821
0.4688483694
0.4694569544
0.4705739201
0.4721165004
0.4739496514
0.4759211548
0.4778853765
0.4797142779
0.4813053563
0.4825880902
0.4835267363
0.4841178065
0.4843832887
0.484362027
0.4841014589
0.4836509887
0.4830574037
0.4823621762
0.481600245
0.4807998214
0.4799828242
0.4791656434
0.4783600273
0.4775739635
0.4768124835
0.4760783591
0.4753726823
0.4746953346
0.4740453578
0.4734212425
0.4728211513
0.4722430825
0.4716850044
0.4711448276
0.4706204717
0.4701080461
0.4696025277
0.469073501
0.4728232077
0.4731053299
0.4733440605
0.4740716467
0.4753478009
0.4770787645
0.479112459
0.4812776574
0.4834107237
0.4853683487
0.4870371541
0.488341895
0.4892489025
0.4897625393
0.4899162659
0.4897616405
0.4893581185
0.4887652027
0.4880373161
0.4872210738
0.4863543443
0.4854664837
0.4845792265
0.483707869
0.4828625025
0.4820491631
0.4812708311
0.4805282595
0.4798206371
0.4791461051
0.4785021505
0.4778858987
0.4772943314
0.4767244379
0.4761733293
0.4756381827
0.4751162257
0.4746027809
0.4740913577
0.4735490876
0.4770879779
0.4774175894
0.4777332402
0.4785813474
0.4800211057
0.481946467
0.4841865515
0.4865492095
0.4888510384
0.4909320537
0.4926673135
0.4939773039
0.494832088
0.4952463348
0.495267608
0.4949624382
0.4944038668
0.4936622839
0.492799843
0.4918678705
0.4909063994
0.4899450013
0.4890042669
0.4880974956
0.487232328
0.4864121861
0.4856374688
0.4849065028
0.4842162735
0.4835629705
0.4829423853
0.4823501934
0.4817821515
0.4812342243
0.4807026612
0.4801838798
0.4796742756
0.4791678614
0.4786549131
0.4780946898
0.4812533141
0.481624786
0.4820148688
0.4829842401
0.4845910635
0.4867157309
0.4891667589
0.4917290998
0.4941977538
0.4963946102
0.4981825239
0.499478392
0.5002580488
0.5005493334
0.500416843
0.4999444538
0.4992202822
0.4983261731
0.4973318035
0.4962924637
0.4952493024
0.4942309544
0.4932557521
0.4923340073
0.4914700839
0.4906641355
0.489913487
0.4892136858
0.4885592754
0.4879443454
0.4873629122
0.4868091714
0.4862776609
0.4857633464
0.4852616429
0.4847681927
0.4842783758
0.4837841737
0.4832701915
0.4826803187
0.4853177172
0.4857254808
0.4861869893
0.4872775103
0.4890537887
0.4913814145
0.494046478
0.4968090123
0.4994405376
0.5017433313
0.5035674711
0.5048272066
0.5055065987
0.5056499418
0.5053420685
0.504686622
0.5037881218
0.5027401288
0.5016192714
0.5004837043
0.4993743512
0.4983175497
0.4973281363
0.4964123965
0.4955705982
0.4947990191
0.4940914854
0.4934404895
0.4928379718
0.4922758464
0.4917463391
0.4912421925
0.490756778
0.4902841269
0.4898188731
0.4893558711
0.4888892453
0.4884079944
0.4878878796
0.4872476959
0.4892792292
0.4897177345
0.4902471136
0.4914577615
0.4934047279
0.4959375955
0.4988181983
0.5017796
0.504567923
0.5069643237
0.5088056127
0.5100046269
0.5105565583
0.5105258617
0.5100210334
0.5091678715
0.5080883693
0.5068876751
0.5056483743
0.5044300111
0.5032716608
0.5021958274
0.501212537
0.5003230086
0.4995226485
0.4988033335
0.4981550612
0.4975670876
0.4970286752
0.4965295605
0.4960602254
0.4956120355
0.4951772879
0.4947491739
0.4943216171
0.4938886659
0.4934428781
0.4929690691
0.492430222
0.491708114
0.4931357135
0.493599406
0.4941925453
0.4955213655
0.4976390457
0.5003779958
0.5034739724
0.5066310094
0.5095678958
0.5120431474
0.5138799186
0.5149911938
0.5153866731
0.5151550829
0.5144321741
0.513368157
0.5121032084
0.510753463
0.5094060026
0.5081199065
0.5069305248
0.5058548654
0.5048968084
0.5040515213
0.5033088807
0.5026559533
0.5020786929
0.5015630399
0.5010955893
0.5006639654
0.5002570024
0.4998648019
0.4994787055
0.4990911767
0.4986955069
0.4982849024
0.4978499635
0.497369866
0.4967901617
0.4959417666
0.4968850822
0.4973683958
0.4980206449
0.499464757
0.5017519543
0.5046963539
0.508005837
0.5113533584
0.5144284385
0.516965435
0.5187735746
0.5197679031
0.5199764935
0.5195168321
0.5185555961
0.5172694233
0.5158169162
0.5143240506
0.5128804503
0.5115425154
0.5103397908
0.509282065
0.5083657832
0.507579187
0.5069060946
0.506328493
0.5058282019
0.5053878671
0.5049915007
0.5046247304
0.5042748716
0.5039308932
0.5035833099
0.5032239735
0.5028456161
0.5024405403
0.5019969123
0.5014865755
0.5008324048
0.4997992751
0.5005254769
0.5010228417
0.5017290467
0.5032846788
0.5057389944
0.5088867488
0.512406188
0.5159371696
0.5191380315
0.5217174698
0.5234706447
0.524316955
0.5243072061
0.5235924633
0.522373985
0.5208564886
0.5192166737
0.5175886077
0.5160620081
0.5146880643
0.5134883053
0.5124635955
0.5116017729
0.5108834433
0.5102860097
0.5097862646
0.5093619247
0.5089924492
0.5086594056
0.5083465683
0.5080398711
0.5077272791
0.5073986006
0.5070451813
0.5066592531
0.5062321216
0.5057489644
0.5051724132
0.5043970577
0.5031061227
0.5040554087
0.5045612714
0.5053158302
0.5069783799
0.5095962691
0.5129438771
0.5166681086
0.5203737578
0.5236861071
0.5262867144
0.5279566796
0.5286224442
0.5283623963
0.5273662689
0.525873427
0.5241178296
0.5222932778
0.520539543
0.5189435189
0.517548407
0.5163654682
0.5153850454
0.5145853836
0.5139389529
0.5134165778
0.5129898955
0.5126326591
0.5123213127
0.5120351441
0.5117562176
0.5114692055
0.5111611747
0.5108213237
0.5104405774
0.5100107068
0.5095219
0.5089557357
0.5082636601
0.507306349
0.5056705325
0.5074738624
0.5079827168
0.5087796519
0.5105437718
0.5133206336
0.5168632841
0.5207856493
0.5246555663
0.5280634497
0.5306622805
0.5322192589
0.5326709739
0.5321287221
0.530826188
0.5290441131
0.5270462436
0.5250417408
0.5231730458
0.5215208984
0.520117586
0.5189619138
0.5180323013
0.5172966651
0.5167190826
0.516263837
0.5158975914
0.5155903586
0.5153157722
0.5150510012
0.5147765145
0.5144758047
0.5141351046
0.513743066
0.5132902535
0.5127680005
0.5121652442
0.5114593429
0.5105886284
0.5093746554
0.5072949496
0.5107803688
0.5112867946
0.5121198384
0.5139795441
0.5169098401
0.5206415479
0.5247540583
0.5287764491
0.532262535
0.5348353278
0.5362484518
0.536452173
0.5355964756
0.5339643846
0.5318808998
0.5296393636
0.5274617542
0.5254895251
0.5237936095
0.5223924227
0.521270303
0.5203926282
0.5197165512
0.5191977604
0.5187942267
0.5184679395
0.5181854465
0.5179177766
0.5176401071
0.5173313755
0.51697392
0.5165531552
0.5160572127
0.5154763379
0.5148014481
0.5140201115
0.5131049026
0.5119793369
0.5104215723
0.5077907198
0.5139750484
0.514473755
0.5153364462
0.5172852403
0.5203626406
0.5242764158
0.5285699576
0.5327318915
0.536277798
0.5387993811
0.5400371795
0.5399590972
0.5387600068
0.536777669
0.5343836988
0.5318999999
0.5295579925
0.5274939248
0.5257650655
0.5243731019
0.5232861849
0.5224558888
0.5218285014
0.5213515868
0.5209772048
0.5206630572
0.5203725205
0.5200741954
0.5197413393
0.5193513558
0.5188853928
0.5183280151
0.5176668335
0.5168918122
0.5159934949
0.5149580224
0.5137527685
0.5122851697
0.5102871524
0.5069948381
0.5170586301
0.517544503
0.5184302885
0.5204612984
0.523678847
0.5277668916
0.5322314634
0.5365191667
0.540105825
0.5425505542
0.5435814653
0.543188496
0.541617991
0.5392677403
0.5365576723
0.5338362823
0.5313402346
0.5291958879
0.5274429292
0.5260637047
0.5250088523
0.5242157947
0.5236202007
0.5231620196
0.5227879397
0.5224518133
0.5221141266
0.5217411777
0.5213043064
0.5207793123
0.5201460624
0.519388206
0.5184928254
0.5174496626
0.5162489862
0.5148755617
0.5132913933
0.5113872232
0.5088477768
0.5047869265
0.5200324469
0.5205005941
0.521402933
0.5235090557
0.5268593507
0.5311132754
0.5357382492
0.5401374219
0.5437454611
0.5460876724
0.5468805614
0.5461409304
0.5441735201
0.5414412311
0.5384132134
0.5354615862
0.5328232784
0.5306097419
0.5288392649
0.5274726228
0.5264420978
0.5256710594
0.5250851428
0.524617405
0.524209804
0.5238127967
0.5233842235
0.5228881415
0.5222939078
0.5215755909
0.5207116498
0.5196847444
0.5184814408
0.5170913703
0.5155047177
0.51370509
0.5116492917
0.5092115691
0.5060305835
0.5011040846
0.5228984134
0.5233442085
0.5242566746
0.5264307231
0.5299061028
0.5343171548
0.5390915505
0.543587695
0.5471978313
0.5494122878
0.5499369452
0.5488207349
0.5464340132
0.5433095463
0.5399657053
0.5367942319
0.53402664
0.5317542821
0.5299705042
0.5286127897
0.5275947682
0.5268263081
0.5262239071
0.5257146224
0.525236383
0.524736692
0.5241709368
0.5235009327
0.5226939345
0.521722118
0.5205624006
0.5191964011
0.5176102346
0.5157936171
0.5137369668
0.5114231552
0.508804359
0.5057394151
0.501824158
0.4959511409
0.5256589855
0.5260781071
0.5269944836
0.5292293296
0.532822059
0.5373813523
0.5422941142
0.5468728615
0.5504662762
0.5525285889
0.5527561849
0.5512358227
0.5484109446
0.5448884987
0.5412350633
0.5378569617
0.5349740312
0.5326523412
0.5308571906
0.5295016643
0.5284810202
0.5276926109
0.5270449558
0.526460125
0.52587274
0.525227757
0.5244782482
0.5235837361
0.5225092226
0.5212248263
0.5197058168
0.5179327756
0.5158915147
0.5135721387
0.5109657633
0.5080551712
0.5047888938
0.5010122951
0.4962834398
0.4894042672
0.5283171086
0.5287055712
0.5296199371
0.5319086436
0.5356110929
0.5403098315
0.5453500956
0.549997515
0.553556204
0.5554432075
0.5553466811
0.5533973433
0.550119403
0.5461977576
0.5422450754
0.5386762112
0.5356926331
0.533330145
0.5315234873
0.5301609269
0.5291202081
0.5282875387
0.5275648209
0.5268702165
0.5261357468
0.5253041792
0.5243263598
0.5231594364
0.5217660069
0.5201139991
0.5181769884
0.515934608
0.5133726178
0.5104819356
0.5072549851
0.5036753153
0.4996891547
0.495131017
0.4895275695
0.4816068944
0.5308761538
0.5312303312
0.5321371327
0.5344730734
0.5382778814
0.5431075671
0.5482649086
0.5529677897
0.5564748693
0.5581649339
0.5577192971
0.5553192112
0.5515775044
0.5472601374
0.5430225768
0.5392812116
0.5362121934
0.5338164759
0.5319964519
0.5306158733
0.5295363699
0.5286346925
0.5278076185
0.5269704924
0.5260533986
0.5249972202
0.5237506281
0.5222683089
0.5205103335
0.5184423667
0.5160363295
0.513271099
0.5101327452
0.5066135389
0.5027079465
0.4984012953
0.4936391046
0.4882480919
0.481730586
0.4727582186
0.5333398482
0.5336564865
0.5345505935
0.5369275523
0.5408277704
0.545780387
0.5510450388
0.5557911323
0.5592310896
0.5607043566
0.5598868996
0.5570175306
0.5528056934
0.548100769
0.5435965031
0.5397029682
0.5365639953
0.5341416855
0.5323051105
0.5308945289
0.5297573295
0.5287627234
0.5278039117
0.5267944752
0.5256631582
0.5243492085
0.5227991515
0.5209651421
0.5188046559
0.5162811048
0.5133648971
0.5100344538
0.5062766218
0.5020856581
0.4974588874
0.4923845066
0.4868090234
0.4805545467
0.4731061939
0.4630959524
0.5357121998
0.5359884196
0.5368651642
0.5392774138
0.5432666241
0.5483347921
0.5536978261
0.5584760375
0.5618349149
0.5630734455
0.5618638343
0.5585099519
0.5538259731
0.5487462002
0.5439968778
0.5399731786
0.53677976
0.5343366142
0.5324793889
0.5310265447
0.5298134832
0.5287039271
0.5275890309
0.5263815842
0.5250095046
0.5234106017
0.5215292764
0.5193151164
0.5167230033
0.5137142001
0.510257848
0.5063323129
0.5019257711
0.4970351587
0.4916615017
0.485796947
0.4793906327
0.472263092
0.4638889195
0.4528758925
0.5379974201
0.5382307089
0.539085905
0.5415282616
0.5456006672
0.550777764
0.5562312302
0.5610317579
0.5642972671
0.565285101
0.563665367
0.5598149956
0.5546611109
0.5492234831
0.5442537959
0.5401231549
0.536890551
0.534431492
0.5325489784
0.5310419623
0.529736381
0.5284925532
0.5272010305
0.5257746664
0.5241409706
0.5222364634
0.5200034437
0.5173889416
0.5143453229
0.5108318994
0.5068168868
0.5022790822
0.497208605
0.4916057869
0.4854761727
0.478816844
0.4715810116
0.4635902656
0.4543145546
0.4423511685
0.5401998476
0.5403880411
0.5412179855
0.543685839
0.5478363236
0.5531165672
0.5586535869
0.5634680045
0.5666295689
0.5673526945
0.5653071217
0.5609513845
0.5553338678
0.5495592999
0.5443964646
0.5401828173
0.5369257522
0.5344548962
0.5325422263
0.5309699601
0.5295572414
0.5281630082
0.526678508
0.5250173693
0.5231070126
0.5208827721
0.5182848753
0.5152578529
0.5117517072
0.5077240832
0.5031426961
0.4979873282
0.4922506924
0.4859372278
0.4790577477
0.4716150926
0.4635676761
0.4547401864
0.4446027057
0.431753839
0.5423238731
0.5424651269
0.5432665825
0.5457559025
0.5499800599
0.5553585554
0.5609733694
0.5657946508
0.5688433798
0.5692896233
0.5668045442
0.5619374197
0.5558662926
0.5497791774
0.5444523553
0.5401798184
0.5369121856
0.5344328417
0.5324851395
0.5308376917
0.5293055455
0.5277481366
0.526058518
0.5241516442
0.5219550615
0.5194029807
0.5164335975
0.5129890478
0.5090171912
0.5044743659
0.4993282833
0.4935603165
0.4871664453
0.4801559013
0.4725454208
0.4643442216
0.4555166576
0.4458918286
0.4349433818
0.4212807685
0.5443738687
0.5444666216
0.5452367841
0.5477441032
0.552038238
0.5575109873
0.5631989595
0.5680214535
0.5709500552
0.5711089005
0.5681724202
0.5627904336
0.5562791201
0.5499068304
0.5444465096
0.540138844
0.5368734171
0.5343880618
0.5324005759
0.5306693141
0.5290078376
0.5272777457
0.5253747871
0.523215626
0.5207280509
0.517845173
0.5145032053
0.5106420346
0.50620766
0.5011555402
0.4954539406
0.4890864758
0.4820530751
0.4743684054
0.4660556571
0.4571307949
0.4475643918
0.437190456
0.4254881038
0.4110844773
0.5463541217
0.5463970516
0.5471335017
0.5496558785
0.5540169798
0.5595808592
0.5653384419
0.5701578
0.5729604444
0.5728227988
0.5694244665
0.5635263425
0.5565912955
0.549963659
0.5444010276
0.5400811196
0.5368292845
0.5343395187
0.5323076761
0.5304852783
0.5286868277
0.5267774914
0.5246563725
0.5222420647
0.5194626218
0.5162500449
0.5125386217
0.5082661736
0.5033771748
0.4978266933
0.4915841623
0.4846361209
0.4769871222
0.4686578341
0.4596782576
0.4500711621
0.4398131036
0.428742669
0.4163448627
0.4012686447
0.5482687739
0.5482607484
0.5489613925
0.5514963568
0.5559220488
0.5615747579
0.5673994226
0.572212491
0.574884635
0.5744425598
0.5705730118
0.5641593143
0.5568196417
0.5499684119
0.5443347454
0.5400241302
0.5367956542
0.534302157
0.5322215565
0.5303019143
0.528360841
0.5262681874
0.5239268378
0.5212573831
0.5181880831
0.5146497896
0.5105749302
0.505899477
0.5005667647
0.4945320118
0.4877664739
0.4802603045
0.4720232972
0.4630825402
0.4534749466
0.443229779
0.4323288365
0.4206142845
0.4075763408
0.3918878553
0.5501217669
0.5500617898
0.550724791
0.5532702753
0.5577587494
0.5634987356
0.5693888779
0.5741935631
0.5767317518
0.5759781757
0.5716287706
0.5647015548
0.5569786669
0.549937012
0.5442630978
0.5399815425
0.5367843958
0.5342868881
0.5321532562
0.5301313085
0.528043617
0.5257655355
0.5232039388
0.5202813483
0.5169261018
0.5130678384
0.5086371979
0.5035685476
0.4978045045
0.491301012
0.484031806
0.4759912883
0.4671949706
0.4576765479
0.4474796398
0.4366393517
0.4251416484
0.4128309511
0.3992015672
0.3829513457
0.5519167932
0.5518039484
0.552427652
0.5549819117
0.5595318431
0.5653582087
0.5713130347
0.5761081517
0.5785098105
0.5774382437
0.5726007115
0.565163208
0.5570805039
0.5498825268
0.5441981413
0.5399633039
0.5368035425
0.5343007732
0.5321099048
0.5299814388
0.5277444178
0.5252802301
0.5224997574
0.5193272721
0.5156910067
0.5115193053
0.5067410951
0.5012893965
0.4951065423
0.4881497604
0.4803958569
0.4718439723
0.4625155931
0.4524509464
0.441699908
0.4303026114
0.4182480627
0.4053817042
0.3912009989
0.3744300047
0.5536572524
0.5534906473
0.5540735012
0.5566350286
0.5612454821
0.567157879
0.5731772784
0.5779623933
0.5802256239
0.5788298889
0.5734960104
0.5655523569
0.5571349608
0.5498152586
0.5441487075
0.5399758787
0.5368575951
0.5343473583
0.53209506
0.5298565107
0.5274683789
0.524818355
0.5218211803
0.5184026105
0.5144905459
0.5100119341
0.5048940549
0.4990688226
0.4924786776
0.4850826012
0.4768609045
0.467817745
0.4579806176
0.4473960349
0.4361196162
0.4241957839
0.4116156888
0.3982249713
0.3835239867
0.3662651436
0.5553462122
0.5551249213
0.5556653963
0.5582328287
0.5629031576
0.568901673
0.5749860883
0.5797613622
0.5818847535
0.5801587472
0.5743200747
0.5658751053
0.5571496555
0.5497429203
0.5441206471
0.5400225796
0.5369479214
0.5344271084
0.532109159
0.5297574297
0.5272170267
0.5243819794
0.5211706109
0.5175098249
0.5133269268
0.5085473375
0.5030967137
0.4969060352
0.489918123
0.4820940071
0.473417727
0.4638985396
0.4535698648
0.4424842604
0.43070271
0.4182734421
0.405189253
0.3912957801
0.3760970333
0.3583774513
0.5569863738
0.5567093835
0.5572058929
0.5597779196
0.56450766
0.5705926981
0.576742992
0.5815090347
0.5834914988
0.5814289944
0.575076624
0.5661357186
0.5571302065
0.5496708639
0.5441171268
0.5401039489
0.5370732012
0.534537888
0.5321500236
0.5296823441
0.5269888861
0.5239698632
0.5205468039
0.516647373
0.5121979799
0.5071223356
0.501344408
0.4947942711
0.4874152044
0.4791703611
0.4700475465
0.4600611127
0.4492503676
0.4376738381
0.4253977445
0.4124739692
0.3988969372
0.3845128691
0.3688315176
0.350675019
0.5585800399
0.5582461958
0.5586970173
0.5612722851
0.5660610476
0.5722332091
0.5784505354
0.5832082727
0.5850489119
0.5826434096
0.5757678055
0.5663367996
0.5570804498
0.5496023269
0.5441389418
0.5402181503
0.5372298746
0.534675442
0.5322133703
0.5296272014
0.5267801113
0.5235781919
0.519945729
0.5158107181
0.5110983166
0.505730247
0.4996285684
0.4927222636
0.484954911
0.4762916655
0.4667240516
0.4562715707
0.4449795561
0.4329126671
0.420142502
0.4067247854
0.392656098
0.3777847953
0.3616301039
0.343059855
0.5601290856
0.5597370418
0.5601402418
0.5627172618
0.5675646214
0.5738245817
0.5801102604
0.5848608175
0.5865588275
0.5838034564
0.5763943294
0.566479477
0.5570026546
0.5495386675
0.5441848111
0.5403613346
0.5374125537
0.5348338341
0.5322932793
0.5295862679
0.5265850823
0.523201275
0.5193613879
0.514993267
0.5100203772
0.5043620254
0.4979379216
0.4906755186
0.4825183121
0.4734332283
0.4634155032
0.4524900064
0.4407084595
0.4281420441
0.4148681068
0.4009467279
0.386377797
0.3710145638
0.3543914807
0.3354326813
0.5616349312
0.5611831027
0.5615364637
0.5641135184
0.5690189022
0.575367288
0.5817226834
0.5864672853
0.5880218956
0.5849093698
0.5769556038
0.5665635871
0.5568977149
0.5494795633
0.5442516291
0.5405279492
0.5376143665
0.5350058105
0.5323825851
0.529552568
0.5263969181
0.5228321509
0.5187865179
0.5141871664
0.5089553031
0.503007188
0.4962594834
0.4886374223
0.4800838817
0.4705673186
0.4600868019
0.4486729916
0.4363845629
0.4232997706
0.4095022379
0.3950572259
0.3799698429
0.3641025473
0.3470132901
0.3276959807
0.563098517
0.5625850344
0.5628859858
0.5654610359
0.5704236086
0.5768608703
0.5832872713
0.5880271566
0.5894376081
0.585960235
0.5774498577
0.5665878328
0.5567652976
0.5494231532
0.5443346501
0.5407109668
0.5378272042
0.5351830572
0.5324731544