/*--------------------------------*- C++ -*----------------------------------*\
| =========                 |                                                 |
| \\      /  F ield         | foam-extend: Open Source CFD                    |
|  \\    /   O peration     | Version:     3.2                                |
|   \\  /    A nd           | Web:         http://www.foam-extend.org         |
|    \\/     M anipulation  | For copyright notice see file Copyright         |
\*---------------------------------------------------------------------------*/
FoamFile
{
    version     2.0;
    format      ascii;
    class       volScalarField;
    location    "0.12";
    object      tpProd;
}
// * * * * * * * * * * * * * * * * * * * * * * * * * * * * * * * * * * * * * //

dimensions      [0 0 -1 0 0 0 0];

internalField   nonuniform List<scalar> 
18000
(
115.0726754
245.4647183
383.1039733
502.1769759
601.5720515
685.7888515
758.5800102
822.6893521
880.0470791
932.0081165
979.5400466
1023.350367
1063.968534
1101.799214
1137.15784
1170.29509
1201.414132
1230.682981
1258.243407
1284.21736
1308.711611
1331.82108
1353.631217
1374.219717
1393.657761
1412.010917
1429.339817
1445.700655
1461.145561
1475.72289
1489.47743
1502.450581
1514.680529
1526.202509
1537.049343
1547.252524
1556.844483
1565.866248
1574.444688
1582.928423
44.20613408
37.51304572
35.3467113
34.5298596
34.3182807
34.49284809
34.93055486
35.55874538
36.32491733
37.18823866
38.11628522
39.08314623
40.06815531
41.05497641
42.03088248
42.98614906
43.91353274
44.80782065
45.66544509
46.48415749
47.26275537
48.0008568
48.69871634
49.35707691
49.9770521
50.56003263
51.10761282
51.62153634
52.10366091
52.55594164
52.98043347
53.37931854
53.75496943
54.11005364
54.4476873
54.77160928
55.0865731
55.40037415
55.62167518
56.55681546
57.01626705
52.24672226
49.8072689
48.27020498
47.12056066
46.23209938
45.51460952
44.92048113
44.42070676
43.99491575
43.62804439
43.30835461
43.02628452
42.77384551
42.54431908
42.33209319
42.13255176
41.94197377
41.75742786
41.57666054
41.39798336
41.22016547
41.04233587
40.86389811
40.68445964
40.50377583
40.32170808
40.13819615
39.95324556
39.76693563
39.57945974
39.39123006
39.20311991
39.01698361
38.83673131
38.6704702
38.53381531
38.47413191
38.23034342
39.35291988
53.07349096
50.34288875
49.03115941
48.33614332
47.91191721
47.68325739
47.57513425
47.55005892
47.58453003
47.66213711
47.77076812
47.90096894
48.04504898
48.19664112
48.35050614
48.50243856
48.64919429
48.78840426
48.91846903
49.03844006
49.14789759
49.2468334
49.33554522
49.41454596
49.48449049
49.5461194
49.60021888
49.64759613
49.6890698
49.72547642
49.75768748
49.78662733
49.81326971
49.83858655
49.86328691
49.88802289
49.90810774
49.95804966
49.62757002
50.65943911
53.80573238
52.33591611
51.61398297
51.28671455
51.16630558
51.2206029
51.3869512
51.6341393
51.94023397
52.28924614
52.66881284
53.06895972
53.48138716
53.89912791
54.31640323
54.72855031
55.13195051
55.52393071
55.90263874
56.26690447
56.6160997
56.95000707
57.26870558
57.57247598
57.86172808
58.13694847
58.39866694
58.6474416
58.88386332
59.1085851
59.32238246
59.52626011
59.72161125
59.91050257
60.09570932
60.28264425
60.4684492
60.71699654
60.58385803
61.83896456
53.1800341
52.40309068
52.04157002
51.91276047
51.93635198
52.10449517
52.36556461
52.69446915
53.07157369
53.48235779
53.9152776
54.3608627
54.8111339
55.25935656
55.69996343
56.12852533
56.54170163
56.93714755
57.31338472
57.66965235
58.00575616
58.32192836
58.61870747
58.89684189
59.15721853
59.40081398
59.62866554
59.84185965
60.04153272
60.22887919
60.40515358
60.57165942
60.72967623
60.88047183
61.02456269
61.16497362
61.28908258
61.47296441
61.25139566
62.35358479
53.06244045
52.76279534
52.67605713
52.69860159
52.83119424
53.08511515
53.41954221
53.81483413
54.25350665
54.722442
55.21090803
55.70996834
56.2120029
56.71054491
57.20026319
57.67697144
58.13759657
58.58008684
59.00327242
59.40670166
59.79047509
60.15509312
60.50132753
60.83012056
61.14251153
61.43958741
61.7224534
61.99222102
62.25000928
62.49695781
62.73424528
62.96312616
63.18492447
63.4012639
63.61306723
63.82550987
64.02276505
64.29504803
64.15057053
65.32606782
52.91073104
52.91729007
53.03632428
53.17665818
53.39288408
53.70909187
54.0937443
54.53168801
55.00729082
55.50864748
56.0257175
56.55000288
57.07414506
57.59183859
58.0978739
58.58818848
59.05985577
59.51099568
59.94062598
60.34848482
60.73485164
61.10038536
61.44599108
61.77271843
62.0816904
62.37405723
62.65096981
62.91356744
63.16297221
63.40028496
63.62656964
63.84284192
64.04997207
64.248948
64.43952314
64.62684139
64.79146129
65.03298393
64.85694967
65.98381758
52.8593099
53.07229606
53.35895
53.60531138
53.90007508
54.27636596
54.71083429
55.19218513
55.70653696
56.24316096
56.79274306
57.34728926
57.89978143
58.44416293
58.9754416
59.48978343
59.98452021
60.45805906
60.90972065
61.33954446
61.74809395
62.13628336
62.50523811
62.85619062
63.19040884
63.50915072
63.81363799
64.1050438
64.38448698
64.65303115
64.91167926
65.16139041
65.40299842
65.63757666
65.86478626
66.09046736
66.29267201
66.57591885
66.43512912
67.59854701
52.83020743
53.17471139
53.59670068
53.93801396
54.30580708
54.73891442
55.22077353
55.74323154
56.29394411
56.86322705
57.44243679
58.02405221
58.60136944
59.16855163
59.72079121
60.25444532
60.76706015
61.2572759
61.72464836
62.16943465
62.59238185
62.99454312
63.37713341
63.74142505
64.08867871
64.42010137
64.73682364
65.03988999
65.33025354
65.60877354
65.87620496
66.1332147
66.38029096
66.61819062
66.84616161
67.07040562
67.26801856
67.54776467
67.40597289
68.57423071
52.82102499
53.24534777
53.77894503
54.20784386
54.64618342
55.13595227
55.66603393
56.23079514
56.81924616
57.42265917
58.03305898
58.64342821
59.24742083
59.83946816
60.41499959
60.97061972
61.50414745
62.01451343
62.50156249
62.96581845
63.40825633
63.83010927
64.2327215
64.61744602
64.98558033
65.33833028
65.67679361
66.00195623
66.31469369
66.61577745
66.90587559
67.18558462
67.4553418
67.7159079
67.96644223
68.21334134
68.43270929
68.73457329
68.61457021
69.8163871
52.81288064
53.27926063
53.90479142
54.41419249
54.92028304
55.46609662
56.04461467
56.65211212
57.27872823
57.91657538
58.55832171
59.197462
59.82802587
60.44472938
61.04325246
61.62045691
62.17443806
62.70441121
63.21049196
63.69343839
64.15440671
64.5947498
65.01586914
65.41911667
65.8057375
66.17684207
66.53339811
66.87623473
67.20605081
67.52342801
67.82883803
68.122685
68.40522726
68.67710606
68.93739316
69.19272874
69.41922982
69.7280018
69.61957935
70.85010567
52.79829309
53.2799649
53.98162291
54.56523575
55.13658107
55.73804396
56.36543615
57.01637457
57.68189191
58.35482813
59.02848019
59.69687921
60.35446543
60.99627356
61.61826572
62.2175909
62.79264808
63.34295949
63.86892672
64.37154957
64.85216602
65.3122446
65.75323835
66.17649417
66.58320625
66.97440024
67.35093729
67.71352938
68.06275828
68.39909843
68.72293315
69.03460555
69.33434216
69.62279043
69.89902556
70.16976411
70.4110946
70.73375253
70.64396237
71.91467669
52.77065935
53.24882611
54.01364202
54.6655526
55.29956157
55.95604226
56.63246618
57.32725979
58.03209537
58.74041868
59.44613704
60.14384064
60.82841144
61.49522863
62.14055674
62.76184841
63.35781859
63.92830228
64.47398366
64.99608997
65.49611591
65.97561151
66.43604075
66.87870142
67.3046921
67.71491077
68.11007246
68.49073647
68.85733512
69.21020467
69.54960788
69.8757917
70.18891783
70.48961516
70.77700072
71.05791573
71.30889307
71.6400507
71.56638585
72.88075005
52.72592288
53.18788077
54.00531889
54.72010309
55.41424001
56.12501011
56.85049606
57.58943979
58.33389016
59.07777411
59.81559389
60.54252804
61.25393554
61.94556731
62.61401109
63.25704185
63.87370778
64.46416991
65.02940069
65.57085082
66.09015825
66.58893412
67.06862983
67.53047211
67.97544775
68.40432015
68.81766313
69.21590143
69.59934989
69.96825187
70.3228071
70.66323229
70.98969266
71.30285195
71.6019084
71.89375869
72.1554433
72.49579416
72.44015417
73.80664346
52.66094434
53.09856051
53.96007741
54.73278364
55.48457551
56.2487952
57.0232167
57.80643899
58.59061762
59.37003206
60.13976692
60.89562352
61.63347478
62.34946816
63.04053239
63.7047822
64.34161706
64.95153818
65.53581113
66.09610209
66.63417169
67.15166206
67.64997744
68.13023938
68.59329387
69.03974861
69.47002402
69.88440642
70.28309559
70.66624802
71.03400739
71.38656622
71.72410015
72.04731677
72.35553194
72.6557222
72.92568024
73.27270419
73.23457788
74.66132673
52.57321936
52.98177835
53.88048676
54.70664908
55.51372836
56.33048101
57.15358184
57.981063
58.80491359
59.61963506
60.42088826
61.20514064
61.9688203
62.70849702
63.42146008
64.10618674
64.76245332
65.39112227
65.99376079
66.57224249
67.12842744
67.66395571
68.18014858
68.67799084
69.15816536
69.62111426
70.0671079
70.49630985
70.90883068
71.30477359
71.68426462
72.04751237
72.39474254
72.72673876
73.04296868
73.35047561
73.62792881
73.98074282
73.96080142
75.45907648
52.46052008
52.83781212
53.76817737
54.64379099
55.50389947
56.37219134
57.24357458
58.11512309
58.97838533
59.82795377
60.66006939
61.47192131
62.26054066
63.02294839
63.75681913
64.46102416
65.13575154
65.78225143
66.40239991
66.99826272
67.57176555
68.12450276
68.65766887
69.17207598
69.6682208
70.14637141
70.60665327
71.0491232
71.47382569
71.88083692
72.27029161
72.64243846
72.99757549
73.33658241
73.65911384
73.97229611
74.25585547
74.61309237
74.6117812
76.19537628
52.32076294
52.66637264
53.62395163
54.54543211
55.45640902
56.37515809
57.29426582
58.2094871
59.11165631
59.99532785
60.85734212
61.69568247
62.50804122
63.29192651
64.04543304
64.76787059
65.45988439
66.12314148
66.75982778
67.37217316
67.96212084
68.53116459
69.08032308
69.6102011
70.12109313
70.61309551
71.08620658
71.5404052
71.97570494
72.39219233
72.79004714
73.16959109
73.53122387
73.87594481
74.20362775
74.52148622
74.81045791
75.17146547
75.18992348
76.87642239
52.15193924
52.46669336
53.44790805
54.41203537
55.37178913
56.33980053
57.3058808
58.26413399
59.20440903
60.12109808
61.01168192
61.87503369
62.70957949
63.51336196
64.28494477
65.0241353
65.73208913
66.41091509
67.06309476
67.69097387
68.29644662
68.88083969
69.44494389
69.98912716
70.5134761
71.01793036
71.502391
71.96679699
72.41117132
72.83564889
73.24048727
73.62610716
73.99303064
74.34239228
74.67431339
74.99610198
75.29007753
75.65453064
75.69438568
77.50555582
51.95209714
52.2376417
53.23958581
54.24344093
55.24991233
56.26584708
57.27791567
58.27826687
59.25549601
60.20371751
61.12112306
62.00760085
62.86240241
63.68416737
64.47199418
65.22626039
65.94868598
66.64183187
67.30843591
67.95088514
68.57093914
69.16968354
69.74763339
70.30490301
70.84138271
71.35688818
71.85126819
72.32447081
72.77657507
73.20780419
73.61852466
74.00927807
74.38072391
74.73414086
75.06991832
75.39545716
75.69462187
76.0627861
76.12634603
78.08878165
51.71934457
51.97782639
52.9981022
54.03900122
55.09012256
56.15246367
57.20926473
58.25044096
59.26307024
60.24088713
61.18290343
62.09018476
62.96292296
63.80043502
64.60243696
65.36995687
66.10532273
66.81152996
67.49149837
68.14755219
68.78121527
69.39325866
69.98388733
70.55296603
71.10022288
71.62540175
72.1283579
72.60910461
73.06782427
73.5048637
73.92072091
74.31606937
74.69170931
75.0490613
75.38879418
75.71839361
76.02342929
76.39605163
76.48619445
78.63165414
51.45186189
51.68569355
52.72227619
53.79770638
54.89136082
55.99838038
57.09834994
58.17869819
59.2247271
60.22970825
61.19363192
62.11894813
63.0069302
63.85767139
64.67160117
65.45047556
66.19724823
66.91528954
67.60758484
68.2762638
68.92250657
69.54670858
70.14875499
70.72829382
71.28495089
71.8184694
72.32878019
72.81601999
73.28051727
73.72276848
74.14341375
74.54325657
74.92322857
75.28487873
75.62915605
75.96361425
76.27567464
76.65393301
76.77397658
79.13959316
51.14792004
51.35961089
52.41073745
53.51829831
54.65228255
55.80201279
56.94324819
58.06070273
59.13765085
60.16684341
61.14946837
62.0896188
62.98981825
63.85105081
64.67455956
65.46288684
66.21958542
66.94828629
67.65187985
68.33215005
68.98983284
69.62491379
70.2369839
70.82554102
71.39019423
71.9307716
72.44735212
72.94024876
73.4099671
73.85716412
74.28261657
74.68724053
75.0720761
75.43877595
75.78855977
76.12902552
76.4495731
76.83489494
76.98832758
79.61661197
50.80589846
50.99793727
52.06201805
53.19936963
54.3713621
55.56157259
56.74181021
57.89387077
58.99875794
60.04867717
61.04630646
61.99769839
62.90682132
63.77567333
64.60640096
65.40235147
66.16758648
66.90582024
67.61964902
68.31035595
68.97815798
69.6226384
70.24316317
70.83918108
71.41039055
71.95679627
72.47869236
72.97660697
73.45123579
73.90338811
74.33395376
74.74392883
75.13442677
75.50717019
75.86363145
76.21142252
76.54202099
76.93585383
77.12598739
80.06471172
50.42430499
50.59908249
51.67463205
52.83945209
54.04698856
55.27517127
56.49177431
57.67549697
58.80483933
59.87147791
60.87995961
61.83867492
62.75325201
63.62682218
64.46249451
65.2643754
66.03686465
66.78351797
67.50641392
68.20619765
68.88253845
69.53467946
70.16187717
70.76366206
71.33993886
71.89097564
72.41733255
72.91977024
73.39916447
73.85644731
74.29258054
74.70859432
75.10563113
75.48544401
75.8497337
76.20609043
76.54813367
76.95165107
77.18120344
80.4832536
50.00179416
50.16155604
51.24714174
52.43709258
53.67755015
54.9409136
56.19087122
57.40287328
58.55269619
59.63155442
60.64634246
61.60823076
62.52473238
63.4002087
64.2387333
65.04503625
65.82359262
66.57750227
67.30810151
68.01530486
68.69827071
69.35602609
69.98787654
70.59358387
71.17337347
71.72784576
72.25785226
72.76437583
73.24843701
73.7110406
74.1531643
74.5758171
74.98012133
75.36781886
75.74081082
76.10662388
76.46104171
76.87482225
77.14547657
80.86883143
49.53718473
49.68400731
50.7782133
51.99091889
53.26150913
54.55698248
55.83692092
57.07340048
58.2392691
59.32540626
60.34164598
61.30244249
62.21741307
63.09219859
63.93175144
64.74117629
65.52466622
66.28453281
67.02117632
67.73376038
68.42104931
69.08203981
69.71627698
70.32390658
70.90557083
71.46224187
71.99505501
72.50517492
72.99370743
73.46166294
73.909969
74.33955394
74.75147071
75.14740987
75.5294433
75.90498382
76.27195437
76.69566642
77.00766006
81.2156923
49.02947632
49.16525912
50.26666365
51.49969683
52.7974684
54.12171568
55.42792175
56.68469206
57.86175945
58.94986594
59.96250307
60.91796836
61.82817463
62.70001303
63.53910807
64.35055863
65.13783405
65.90212288
66.64276359
67.35824624
68.04714451
68.70866302
69.342791
69.9501949
70.53199674
71.08954087
71.62420284
72.13725998
72.6298241
73.10283298
73.55709398
73.99339675
74.41267995
74.81654696
75.20721004
75.59190577
75.97062043
76.40276445
76.75457906
81.51690736
48.47786361
48.60433383
49.71149816
50.96237758
52.28422807
53.63367268
54.96212938
56.23466756
57.41773944
58.50222814
59.50613856
60.45221573
61.35480245
62.2218953
63.05943055
63.87198131
64.66179208
65.428635
66.17076767
66.88619966
67.57359996
68.23265315
68.86398864
69.46889508
70.04899204
70.6059534
71.14131694
71.65638026
72.15216937
72.62946738
73.08889425
73.53104945
73.95672068
74.36739394
74.76539103
75.15769314
75.54622289
75.98399137
76.37222431
81.76636109
47.88174921
48.00047453
49.11194154
50.37813769
51.72083439
53.09169322
54.43812673
55.72163572
56.90525029
57.98036477
58.9705015
59.90348542
60.79613113
61.65723915
62.49251447
63.30535077
64.09624825
64.86336219
65.603992
66.31598233
66.99844982
67.65183878
68.2775815
68.87763893
69.45409399
70.00886564
70.54354804
71.05935228
71.55712318
72.03741151
72.50059153
72.94703222
73.37734419
73.79287235
74.1960161
74.59340226
74.98871603
75.42803679
75.84753526
81.96156894
47.24075458
47.35316129
48.46746208
49.7464114
51.10661989
52.4949463
53.85488325
55.14436534
56.32288571
57.38282182
58.35437449
59.27108666
60.15215171
61.00667261
61.83937665
62.6517139
63.44195881
64.20659703
64.94225961
65.64705701
66.32094462
66.96538308
67.58271438
68.17555957
68.7463791
69.29721813
69.82960409
70.34455137
70.84263453
71.32410597
71.78905042
72.23758026
72.67011532
73.087842
73.49320445
73.89235653
74.2905363
74.72635918
75.17068177
82.10720581
46.55472704
46.6621212
47.77778799
49.0669136
50.44123329
51.8429675
53.21180053
54.50214004
55.66985611
56.70889287
57.65745399
58.55541592
59.42407481
60.27209151
61.10225759
61.91324794
62.70073678
63.45968634
64.18652742
64.8801587
65.54176779
66.1740337
66.78024167
67.36359572
67.92680374
68.47189608
69.00020649
69.51245098
70.00885995
70.48933969
70.95365979
71.40166653
71.83358841
72.2504429
72.65468638
73.05186822
73.44855165
73.87542003
74.3376557
82.21911353
45.82374653
45.9273365
47.04292013
48.33965808
49.72466303
51.13568833
52.50874815
53.79480055
54.94603669
55.95867149
56.88040366
57.75800153
58.61435194
59.45664649
60.28457998
61.09321702
61.87544058
62.62507598
63.3389921
64.01745199
64.66322966
65.28034262
65.87297096
66.44476549
66.99852078
67.53610532
68.0585426
68.56616797
69.05881687
69.53602467
69.9972413
70.44205516
70.87051698
71.28347324
71.68336478
72.07500603
72.46606441
72.87897977
73.35290734
82.32847463
45.04812838
45.14904723
46.26313793
47.56496713
48.95725058
50.37345338
51.74608439
53.02276853
54.15199288
55.13307593
56.02487344
56.88150674
57.72664839
58.56467853
59.39086056
60.19589339
60.9699387
61.70633546
62.40317055
63.06265116
63.68941144
64.28882644
64.86584215
65.42437493
65.96713327
66.49568763
67.01065863
67.51194747
67.99897257
68.47089975
68.92687731
69.36626276
69.78895757
70.19564702
70.58874024
70.9722096
71.35464087
71.75018647
72.23170561
82.48575652
44.22842382
44.3277507
45.43900039
46.74347472
48.13969547
49.55702679
50.92466384
52.18705376
53.28898481
54.23384729
55.09348582
55.92969337
56.76577109
57.60160879
58.42658312
59.22645112
59.98905404
60.70815975
61.38394528
62.02108864
62.62624197
63.20604796
63.76602105
64.31013722
64.8408546
65.35933712
65.86574513
66.35952801
66.83969763
67.30507957
67.75456202
68.18731779
68.60314429
69.00259208
69.38804387
69.76257393
70.13556333
70.51321374
71.00194118
82.7639313
43.36541892
43.46419853
44.57134349
45.87612443
47.27305323
48.68758956
50.04583274
51.28924562
52.35895174
53.26352267
54.08979148
54.90734904
55.73755607
56.5737894
57.39804112
58.19083924
58.93848993
59.63634323
60.28756416
60.89971804
61.48149242
62.04060394
62.58289038
63.11218117
63.63054857
64.13868333
64.63627208
65.12233506
65.59552277
66.0543788
66.49759646
66.92423027
67.3340376
67.727484
68.10696358
68.47467732
68.84076286
69.20428494
69.70520523
83.26015278
42.46013063
42.55939034
43.66127296
44.96416115
46.35872512
47.76672624
49.11141098
50.33148782
51.36447573
52.22538272
53.01819429
53.82017962
54.64871904
55.4883212
56.31215651
57.09563822
57.8247361
58.49771831
59.12158319
59.70703942
60.2646771
60.80300714
61.32792542
61.84293344
62.34962906
62.84821582
63.3379429
63.81746727
64.28515931
64.73936847
65.17868305
65.60212739
66.0095048
66.4012761
66.77992833
67.14692143
67.51320639
67.87206732
68.3971601
84.09423414
41.51380097
41.6145651
42.7101536
44.00911799
45.39844144
46.796403
48.12366292
49.31643878
50.30872748
51.12337771
51.88385124
52.67467393
53.50667835
54.35284954
55.17628609
55.94790788
56.65495692
57.30005642
57.89474898
58.45294534
58.98686171
59.50546584
60.01445709
60.51687587
61.01381829
61.50504689
61.9894629
62.46547107
62.93128056
63.38516613
63.82572786
64.25207304
64.66416331
65.06257349
65.45001818
65.82747552
66.20686153
66.57760682
67.14743998
85.40089162
40.52788961
40.6311907
41.7195961
43.01279931
44.39423938
45.77893849
47.08525863
48.24722005
49.19539748
49.96203591
50.69255258
51.47794816
52.31935966
53.17534925
53.99802575
54.75503307
55.43686398
56.0519316
56.61682289
57.14849353
57.66038853
58.16157313
58.65733656
59.15019257
59.64077965
60.12853046
60.61214384
61.08993108
61.56010038
62.02100736
62.47141314
62.91065216
63.33899013
63.75728114
64.16866254
64.57402679
64.98649038
65.39412035
66.03946911
87.31206698
39.50406415
39.61095113
40.69144066
41.97725969
43.34843554
44.71696772
45.99922652
47.12735398
48.02861444
48.74635787
49.45058728
50.23757683
51.09499132
51.96390883
52.78502134
53.52457213
54.17857466
54.76254917
55.29835357
55.80561862
56.29853639
56.78592728
57.27252505
57.76033359
58.24965583
58.73977419
59.2293902
59.71693358
60.20082029
60.67968754
61.15264932
61.61945319
62.08085791
62.53821745
62.99535156
63.45359813
63.92756883
64.40697527
65.17050709
89.92931004
38.44418941
38.55573277
39.62773935
40.9047809
42.26359553
43.61340187
44.86890045
45.9606948
46.81285646
47.48170302
48.16460187
48.96142033
49.84190183
50.72652596
51.54479638
52.26411501
52.88846283
53.44154848
53.95041339
54.43680512
54.91514288
55.39371507
55.87664511
56.36553616
56.86056022
57.36110149
57.86613526
58.37448439
58.88504261
59.39698961
59.91004251
60.42460466
60.94217184
61.46487862
61.99754329
62.54258799
63.11641506
63.71378474
64.65152155
93.29637203
37.35031491
37.46760893
38.5307365
39.79784638
41.14250051
42.47138438
43.69786255
44.75135497
45.55285733
46.17367238
46.84145796
47.65745575
48.56832743
49.47092239
50.28460259
50.98115461
51.57500578
52.09878947
52.58431524
53.05474484
53.52421719
54.00029092
54.48653108
54.98434792
55.49407369
56.01552536
56.54830003
57.09196683
57.64624805
58.21120793
58.78749511
59.37648211
59.98070231
60.60339292
61.25069132
61.92674798
62.64988634
63.42337098
64.60463215
97.3899245
36.22466062
36.34882302
37.40284764
38.65911418
39.98811182
41.29424487
42.48988368
43.50362927
44.25351175
44.82799222
45.48809456
46.33361832
47.28223763
48.20438544
49.01129803
49.68297468
50.2466335
50.74413513
51.2113294
51.67200387
52.13957315
52.62078532
53.11881658
53.63519516
54.17079681
54.72629185
55.30234089
55.89971272
56.51941379
57.162838
57.83198404
58.52956943
59.25947889
60.02631735
60.83768712
61.69982264
62.63252284
63.65024465
65.15311772
102.1365386
35.06960282
35.20177203
36.24663895
37.49139044
38.80353645
40.085454
41.24886536
42.2219216
42.91978507
43.45040514
44.11140231
44.99766139
45.99118657
46.933643
47.73125778
48.37655836
48.91158829
49.38724459
49.84242091
50.30072418
50.77451011
51.26977258
51.78959209
52.33603258
52.91099722
53.5165354
54.15492813
54.82872161
55.54078679
56.29439999
57.09339148
57.94217924
58.84615795
59.81122094
60.84597022
61.95817194
63.16737311
64.49985639
66.39908068
107.4434489
33.88765759
34.02898814
35.06480506
36.29760156
37.59199132
38.84857782
39.978782
40.91067327
41.55662693
42.0465684
42.71811014
43.65703529
44.70219005
45.66477033
46.45031273
47.06851381
47.57779535
48.03738334
48.48801843
48.95237244
49.44155493
49.96101152
50.51414643
51.10408872
51.73436535
52.40905406
53.13274943
53.91049182
54.74771491
55.65018557
56.62397884
57.67529782
58.81064268
60.03619048
61.35975044
62.78838573
64.33791845
66.04436269
68.39415451
113.2240704
32.68146446
32.83312071
33.86014774
35.08076775
36.35676983
37.58723514
38.68362742
39.57429767
40.16889389
40.62196485
41.31468936
42.31878995
43.42163203
44.4031308
45.17371733
45.76501841
46.25275067
46.70326129
47.15782704
47.63754816
48.15227585
48.70726794
49.30679892
49.95570985
50.6598727
51.42618135
52.26238013
53.1768392
54.17829354
55.27548689
56.47675827
57.78940222
59.21938648
60.77052712
62.44622203
64.24891736
66.18652353
68.30149794
71.12474776
119.4099297
31.4537697
31.61691845
32.63555528
33.843978
35.10121052
36.30505825
37.36736626
38.21712167
38.7612816
39.18182658
39.9072751
40.98950062
42.15519865
43.15334676
43.90614043
44.47177771
44.94342632
45.39290159
45.86068771
46.36585157
46.91716498
47.52021201
48.18080952
48.90627948
49.70569188
50.58968058
51.57008617
52.65946538
53.87042268
55.21466781
56.70186927
58.33826566
60.12585165
62.0617031
64.14015222
66.35521301
68.70458631
71.23538716
74.52813579
125.9516019
30.2074096
30.38321198
31.39398291
32.59036683
33.82866862
35.00565769
36.0338909
36.84333447
37.33826674
37.73107122
38.5016041
39.67521484
40.90783667
41.91929602
42.65167388
43.19399566
43.65619274
44.1135404
44.60448125
45.14580495
45.7455789
46.41037337
47.14834
47.97016997
48.88910518
49.92053785
51.08135315
52.38894756
53.85980292
55.50753086
57.34063941
59.36037124
61.55987203
63.92475887
66.43690408
69.0806142
71.8445115
74.78068667
78.5262406
132.8143964
28.94529449
29.13489756
30.13843509
31.32309388
32.54249147
33.69259214
34.68698496
35.45694472
35.90405923
36.27425029
37.10296791
38.38141943
39.68373419
40.70413029
41.41385438
41.9363533
42.39675742
42.87155601
43.39607148
43.98481728
44.6457205
45.38712889
46.22042767
47.16066515
48.22630237
49.438493
50.81989819
52.39283429
54.17660451
56.18412651
58.41860828
60.87130022
63.52193622
66.34191812
69.30036778
72.37362482
75.54452011
78.87090624
83.05227271
139.9730642
27.67039467
27.87492329
28.87195111
30.04532779
31.2459994
32.36934509
33.33029491
34.06174701
34.46256512
34.81550982
35.71618104
37.11302721
38.48632267
39.51031363
40.19569575
40.70299525
41.1701197
41.67242429
42.24127953
42.88917744
43.62463978
44.45868992
45.40692271
46.48978047
47.7319594
49.16116212
50.80601259
52.69282889
54.84127038
57.25953645
59.94069989
62.86179293
65.98690573
69.27354458
72.68043019
76.17898855
79.74948764
83.45539668
88.06160911
147.4075635
26.3857287
26.60627807
27.5975943
28.76023486
29.94247257
31.03930864
31.96730995
32.66129784
33.01735978
33.3585616
34.34556303
35.87438325
37.3182998
38.33967896
38.99972904
39.49752214
39.98053958
40.52069497
41.14487833
41.8640593
42.68822868
43.63205116
44.71633082
45.96789577
47.41848962
49.10266114
51.05429877
53.3015744
55.86085187
58.731175
61.89166536
65.30330823
68.91515652
72.6732323
76.52897399
80.45156103
84.42083365
88.50455325
93.53265587
155.1004355
25.09435494
25.33198459
26.31844631
27.47097382
28.63514535
29.70577625
30.60135206
31.25890239
31.57167223
31.90666604
32.99493594
34.6692941
36.18167665
37.19350452
37.82805141
38.32299132
38.83152141
39.419985
40.11059866
40.91352418
41.84118893
42.9128714
44.15551995
45.60315149
47.29494408
49.27183724
51.5712563
54.22012426
57.22763864
60.58034488
64.24187833
68.15785299
72.26452508
76.49919135
80.8085722
85.1614462
89.53848498
94.00948386
99.46494702
163.0356117
23.79936855
24.05509832
25.03760855
26.1806996
27.32721126
28.37194767
29.23557968
29.85761595
30.12838382
30.46262916
31.66764246
33.50108807
35.07785735
36.07261688
36.68239014
37.18193311
37.72581835
38.37299151
39.14114365
40.04051113
41.08695472
42.30525922
43.72926495
45.40061698
47.36568793
49.6705091
52.35356027
55.43731737
58.92100426
62.77740578
66.95532252
71.38695918
75.99809618
80.7193994
85.49474246
90.29406228
95.09996478
99.98115299
105.8784676
171.1983187
22.50390395
22.77871287
23.75821167
24.89257684
26.02184007
27.04094832
27.87300741
28.46026216
28.69004313
29.02881591
30.36659029
32.37271741
34.00776289
34.97753023
35.56419231
36.07639538
36.66546991
37.38153406
38.23821896
39.24681729
40.42756495
41.81145341
43.43963565
45.36131119
47.62911809
50.2922741
53.38779695
56.93148808
60.91165071
65.28797857
69.99616443
74.95690204
80.08707985
85.31215097
90.5749536
95.84879033
101.1199287
106.4515735
112.8157555
179.5756566
21.2111446
21.50597383
22.48343543
23.6098067
24.72221103
25.71586766
26.51654745
27.06947425
27.25890261
27.60718569
29.09433602
31.28692305
32.97202115
33.90864335
34.47476396
35.00804329
35.65189904
36.44665078
37.40260171
38.53309246
39.86351514
41.4314482
43.28533442
45.48130237
48.07682537
51.12237578
54.65183531
58.6737428
63.1662731
68.07767965
73.33218785
78.84011775
84.51031878
90.26435632
96.0467563
101.8381715
107.6316643
113.478159
120.3473679
188.157451
19.92434163
20.24010283
21.21654167
22.33567031
23.43156709
24.39982305
25.16907991
25.68776705
25.83698437
26.1993591
27.85322955
30.24649417
31.97125749
32.8665289
33.41549917
33.97836008
34.68611667
35.56879637
36.63429559
37.89889746
39.39365291
41.16267241
43.2611879
45.75122574
48.69360524
52.13880636
56.11733213
60.63146484
65.65101768
71.11443899
76.93540819
83.01420832
89.25223451
95.56922967
101.9162413
108.2884704
114.6912206
121.1518872
128.5810959
196.9368743
18.64684147
18.98443258
19.96092188
21.07359172
22.15329433
23.09605458
23.83355942
24.31764846
24.42618362
24.80672762
26.64565026
29.25466761
31.00653302
31.85236558
32.38825967
32.98901979
33.76911279
34.7482288
35.93286717
37.3429311
39.01524253
40.9998953
43.35804013
46.15650175
49.45844467
53.31430871
57.7524526
62.77092898
68.33310222
74.36865534
80.78082788
87.45971655
94.30020803
101.2240104
108.1971771
115.2418888
122.384696
129.6101779
137.6755773
205.9102657
17.38212341
17.74245456
18.72016219
19.82722485
20.89103313
21.80806025
22.51316988
22.96178428
23.02842413
23.43062595
25.47438577
28.31573114
30.07999645
30.86858838
31.39599838
32.04254138
32.90255825
33.98572605
35.29812687
36.8636195
38.72443455
40.93564844
43.56336024
46.67846676
50.34639061
54.61879648
59.52420706
65.05880417
71.18103348
77.81211204
84.8443369
92.15741791
99.6417479
107.2277082
114.910603
122.7602661
130.8389793
139.0554116
147.8590609
215.0754781
16.13384682
16.51787966
17.49812765
18.60056816
19.64882753
20.53978103
21.21154097
21.62323394
21.64588413
22.07259486
24.34322673
27.43590486
29.19582574
29.91985612
30.44375843
31.14338359
32.08999794
33.28383122
34.73137268
36.46031541
38.51743253
40.96149289
43.86285232
47.29650551
51.331096
56.02184449
61.40026726
67.46286294
74.16411881
81.41644908
89.10040298
97.08550183
105.2615318
113.5787082
122.0845649
130.9300413
140.2363298
149.7805541
159.4548268
224.4288633
14.9059057
15.31471084
16.2990662
17.39810987
18.431319
19.29584713
19.9330436
20.30578026
20.28131776
20.73477319
23.25788043
26.62456362
28.3615273
29.01444815
29.5402091
30.29968092
31.33876416
32.64887226
34.23745185
36.1353742
38.39264282
41.07041976
44.24328466
47.99126941
52.38807394
57.49545451
63.35081251
69.9527418
77.252203
85.15202496
93.52020229
102.2170887
111.1385481
120.2721954
129.7536527
139.8679555
150.8327819
162.2035351
172.9158271
233.9636051
13.70248777
14.13732591
15.12773254
16.2250065
17.2439916
18.08189872
18.68318664
19.01438495
18.93850746
19.42047603
22.2273377