/*--------------------------------*- C++ -*----------------------------------*\
| =========                 |                                                 |
| \\      /  F ield         | foam-extend: Open Source CFD                    |
|  \\    /   O peration     | Version:     3.2                                |
|   \\  /    A nd           | Web:         http://www.foam-extend.org         |
|    \\/     M anipulation  | For copyright notice see file Copyright         |
\*---------------------------------------------------------------------------*/
FoamFile
{
    version     2.0;
    format      ascii;
    class       volScalarField;
    location    "0.12";
    object      tpProd3d;
}
// * * * * * * * * * * * * * * * * * * * * * * * * * * * * * * * * * * * * * //

dimensions      [0 2 -3 0 0 0 0];

internalField   nonuniform List<scalar> 
18000
(
0.0007637440333
0.0014715542
0.002229617408
0.003029364153
0.003873443721
0.004758659745
0.005680831366
0.00663559166
0.007619034151
0.008627593263
0.009657829986
0.01070625676
0.01176923223
0.01284292728
0.01392334897
0.01500640375
0.01608798156
0.01716404565
0.01823071703
0.01928434674
0.02032157269
0.02133935997
0.02233502536
0.02330624782
0.02425106716
0.02516787314
0.02605538685
0.02691263612
0.02773892645
0.02853380878
0.02929704601
0.03002857963
0.03072850071
0.0313970337
0.03203454952
0.03264163699
0.03321928325
0.03376933582
0.03429764253
0.0348351146
9.382455354e-05
1.544345691e-06
0.0001390655863
0.0002948112365
0.0004602566171
0.000630155703
0.0007997930289
0.0009655795392
0.001125068665
0.001276714714
0.001419664499
0.001553575082
0.001678465939
0.001794603017
0.001902409913
0.002002401316
0.002095134504
0.002181175144
0.002261074306
0.002335353977
0.002404498857
0.002468952687
0.0025291178
0.002585356741
0.002637995107
0.002687324957
0.00273360843
0.002777081392
0.002817956984
0.002856428882
0.002892674143
0.00292685547
0.002959122672
0.002989612621
0.003018446186
0.003045719678
0.003071488862
0.003095743192
0.003118687747
0.003124252798
0.0001076590632
0.0001195989092
0.0001024056361
9.190814095e-05
8.279962276e-05
7.310541643e-05
6.218823048e-05
4.996847858e-05
3.66519969e-05
2.297929468e-05
1.278187347e-05
1.852084454e-05
3.372533709e-05
5.092123312e-05
6.880243739e-05
8.697164886e-05
0.0001052209239
0.0001234098105
0.0001414327184
0.0001592067666
0.0001766659213
0.0001937575599
0.0002104401807
0.0002266816973
0.0002424580401
0.0002577519713
0.000272552107
0.0002868521433
0.0003006502322
0.0003139484748
0.0003267525895
0.0003390718681
0.0003509195824
0.0003623142049
0.0003732824024
0.0003838641558
0.0003941236671
0.0004041329462
0.0004139908821
0.0004178988589
0.0001165772664
0.000177816176
0.0002053548186
0.0002402089215
0.000275029256
0.0003072101323
0.0003357986063
0.0003605692501
0.0003815835157
0.0003990686807
0.0004133307402
0.0004247065306
0.0004335354745
0.00044014361
0.0004448349814
0.0004478874792
0.0004495513797
0.0004500495013
0.0004495783674
0.0004483099285
0.0004463935607
0.0004439581526
0.0004411141729
0.0004379556896
0.0004345623239
0.0004310010755
0.0004273279562
0.0004235894304
0.0004198237164
0.0004160619859
0.000412329437
0.0004086462865
0.0004050289424
0.0004014918386
0.0003980498232
0.0003947231964
0.0003915382095
0.0003885791604
0.0003857517453
0.0003729988858
0.0001021807598
0.0001803067792
0.0002239058243
0.000273634789
0.0003217156514
0.0003655301855
0.0004042113894
0.000437635525
0.000465985346
0.0004896170036
0.0005089663863
0.0005244977391
0.0005366727999
0.0005459329962
0.0005526894595
0.0005573178468
0.0005601562279
0.0005615049629
0.0005616279494
0.0005607547564
0.0005590832899
0.0005567827208
0.0005539965032
0.0005508453881
0.0005474303384
0.0005438352369
0.0005401293084
0.0005363692631
0.0005326012078
0.00052886232
0.0005251822267
0.0005215840702
0.0005180852417
0.0005146978532
0.0005114278645
0.000508275625
0.0005052194687
0.0005022572522
0.0004991577501
0.0004978214323
8.758472239e-05
0.0001725243221
0.0002245072239
0.0002815739619
0.0003357685791
0.0003844551415
0.0004268463097
0.0004629096584
0.000492942878
0.0005174243916
0.000536911865
0.000551986478
0.0005632195463
0.0005711532334
0.0005762895642
0.0005790845796
0.0005799458964
0.0005792326393
0.0005772571049
0.0005742876318
0.000570552224
0.0005662425745
0.0005615182317
0.0005565107338
0.0005513275493
0.0005460556775
0.0005407648417
0.0005355103016
0.000530335329
0.0005252733324
0.000520349627
0.0005155829906
0.0005109870486
0.0005065715224
0.000502341741
0.0004983002907
0.0004944261326
0.0004907082546
0.0004868424392
0.0004780621449
7.584507428e-05
0.0001641325471
0.0002218898727
0.0002837710283
0.0003417550102
0.0003931826257
0.0004373319142
0.0004742492094
0.0005043400899
0.0005281993237
0.0005465009032
0.0005599374612
0.000569184399
0.0005748790282
0.0005776083516
0.0005779022714
0.0005762306276
0.0005730031492
0.0005685716685
0.0005632339781
0.0005572387334
0.0005507908976
0.0005440573492
0.0005371723634
0.0005302427295
0.0005233523341
0.0005165661557
0.0005099337219
0.0005034920679
0.0004972681666
0.0004912808248
0.000485542165
0.0004800586137
0.0004748312999
0.0004698537632
0.0004651106358
0.0004605515178
0.0004561124532
0.0004514783506
0.0004448386302
6.677525272e-05
0.0001571153309
0.0002194768594
0.0002850708363
0.0003458339275
0.0003990702656
0.0004441083943
0.0004810675053
0.0005104604156
0.0005329988786
0.0005494746357
0.0005606937247
0.0005674380084
0.0005704422483
0.0005703799069
0.0005678547166
0.0005633967814
0.0005574624872
0.0005504375224
0.0005426421766
0.0005343380558
0.0005257354667
0.0005170008902
0.0005082641202
0.0004996247516
0.0004911578399
0.0004829187172
0.0004749470493
0.0004672701959
0.0004599058969
0.0004528643653
0.0004461499354
0.0004397621186
0.0004336959375
0.0004279394843
0.0004224713291
0.0004172348147
0.0004121455892
0.0004068933295
0.000397348676
5.973429172e-05
0.0001515901236
0.0002179275403
0.0002866596671
0.0003496637851
0.0004041917922
0.000449611383
0.0004861148466
0.0005143269848
0.0005350823402
0.0005492969512
0.0005578975504
0.0005617802137
0.0005617844041
0.00055867558
0.0005531341628
0.000545750293
0.0005370238713
0.0005273689889
0.0005171214871
0.0005065483279
0.0004958576452
0.0004852086292
0.0004747206639
0.0004644813528
0.0004545532913
0.0004449796463
0.0004357886865
0.0004269973688
0.0004186140666
0.0004106405967
0.0004030736947
0.0003959057317
0.0003891244596
0.0003827099279
0.0003766301933
0.0003708172248
0.000365164484
0.0003593794753
0.0003493352544
5.423444158e-05
0.0001473544636
0.0002172708635
0.0002887892145
0.0003536889065
0.0004091524719
0.0004545792911
0.0004902400331
0.0005168802364
0.0005354666712
0.0005470497659
0.0005526879424
0.0005534027731
0.0005501484155
0.0005437893026
0.0005350853971
0.0005246854162
0.0005131276432
0.0005008469021
0.0004881856585
0.0004754072006
0.0004627092343
0.0004502367299
0.0004380933066
0.0004263508108
0.0004150570576
0.0004042419371
0.0003939221408
0.000384104709
0.0003747895931
0.0003659714737
0.0003576410018
0.0003497852741
0.0003423873106
0.0003354228942
0.0003288554226
0.0003226145066
0.0003165866248
0.0003104987568
0.0002986270428
4.993081073e-05
0.0001441583262
0.000217375422
0.0002914379031
0.00035797954
0.0004140967118
0.000459217199
0.0004936994509
0.0005184215785
0.0005344947219
0.0005431165273
0.0005454910387
0.000542779196
0.0005360612909
0.0005263075282
0.0005143585196
0.0005009173249
0.0004865524169
0.0004717090448
0.0004567256687
0.0004418523651
0.000427268876
0.0004131008342
0.0003994334194
0.0003863222434
0.0003738016668
0.0003618909676
0.0003505987891
0.0003399262169
0.0003298688038
0.0003204178638
0.000311561213
0.000303283205
0.0002955638529
0.0002883757043
0.0002816786953
0.0002754022865
0.0002694356412
0.0002635398187
0.0002505628712
4.659307261e-05
0.000141789273
0.0002180957722
0.00029451916
0.000362496105
0.0004190212555
0.0004635514981
0.0004965458404
0.0005190292428
0.000532271464
0.0005376324838
0.000536478401
0.0005301252544
0.000519791171
0.0005065572117
0.0004913424567
0.0004748961302
0.0004578051396
0.0004405125057
0.0004233413994
0.0004065203067
0.0003902062838
0.0003745046559
0.0003594845795
0.0003451906052
0.0003316508236
0.00031888233
0.0003068946743
0.000295691828
0.0002852731299
0.0002756336112
0.0002667639098
0.000258649701
0.0002512705376
0.0002445971617
0.0002385877187
0.0002331754308
0.00022826613
0.0002236808875
0.0002103984955
4.406654864e-05
0.0001400793455
0.0002193062425
0.0002979422812
0.000367174559
0.0004238822149
0.0004675556317
0.0004987699673
0.0005187133293
0.0005288301041
0.0005306598444
0.0005257494192
0.0005155869433
0.0005015392177
0.0004848001659
0.0004663607523
0.0004470038504
0.0004273200991
0.0004077369699
0.0003885530419
0.0003699713889
0.00035212844
0.0003351167713
0.000319001707
0.0003038324502
0.0002896488362
0.0002764848307
0.0002643696872
0.0002533274894
0.0002433756848
0.0002345231358
0.0002267680538
0.0002200960017
0.0002144782294
0.0002098701245
0.0002062112341
0.0002034225933
0.0002014227373
0.0002001188687
0.0001896288887
4.224554149e-05
0.0001389008612
0.0002209082321
0.0003016313561
0.0003719554659
0.0004286324632
0.0004711939168
0.0005003491053
0.0005174673043
0.0005241851029
0.0005222409722
0.0005133833906
0.0004992900888
0.0004814853154
0.0004612735226
0.0004397059086
0.0004175826105
0.0003954821935
0.0003738058081
0.0003528245623
0.0003327223563
0.0003136302941
0.0002956516416
0.0002788779849
0.0002633979934
0.0002493003265
0.0002366720072
0.0002255933094
0.0002161301541
0.0002083252481
0.0002021895727
0.0001976960365
0.0001947769177
0.0001933262918
0.000193207431
0.0001942664693
0.0001963485337
0.0001993413907
0.0002032316064
0.0001996261704
4.105346985e-05
0.0001381577316
0.0002228271811
0.0003055277702
0.0003767912438
0.0004332326932
0.0004744354872
0.0005012630614
0.0005152854003
0.0005183503571
0.0005124168547
0.0004994577741
0.0004813577611
0.0004598039595
0.0004362036754
0.0004116517115
0.000386946969
0.0003626426923
0.0003391110698
0.0003166067671
0.0002953202908
0.0002754175552
0.0002570653979
0.0002404441816
0.0002257486889
0.0002131781001
0.0002029159122
0.0001951021624
0.000189803489
0.0001869897952
0.0001865265184
0.0001881866949
0.0001916792294
0.0001966844646
0.0002028879397
0.0002100101795
0.0002178306183
0.000226239479
0.000235348886
0.0002405201601
4.042930827e-05
0.0001377775707
0.0002250074544
0.0003095876601
0.0003816457176
0.0004376525195
0.0004772564467
0.0005014969888
0.0005121657624
0.0005113424344
0.0005012302284
0.0004840509235
0.0004619121669
0.0004366648603
0.0004098056182
0.0003824524563
0.0003553860567
0.0003291300421
0.0003040425855
0.0002803998857
0.0002584615663
0.0002385144981
0.0002208937231
0.0002059780485
0.0001941562827
0.0001857630385
0.0001809955284
0.0001798415467
0.0001820560252
0.0001872022979
0.0001947371976
0.000204100016
0.0002147764012
0.0002263311687
0.0002384185783
0.0002507851874
0.0002632729174
0.00027586293
0.0002888432966
0.0003022104233
4.031898307e-05
0.0001377051937
0.0002274072957
0.0003137781398
0.0003864913651
0.0004418684679
0.0004796384031
0.0005010403548
0.000508109788
0.0005031802782
0.0004887256514
0.0004672423941
0.0004410748871
0.0004122329564
0.0003822834018
0.0003523462702
0.0003231751191
0.0002952796108
0.000269053159
0.0002448823868
0.0002232265398
0.0002046574532
0.0001898439955
0.000179458665
0.0001740027332
0.0001736096958
0.0001779484603
0.0001863044054
0.0001977804073
0.0002114902302
0.0002266705591
0.0002427154459
0.0002591670902
0.0002756916979
0.0002920559841
0.0003081145191
0.0003238083868
0.0003392139471
0.0003547827793
0.0003755218974
4.067088375e-05
0.0001378977343
0.0002299947742
0.0003180739619
0.0003913065719
0.0004458617025
0.0004815666178
0.0004998855309
0.0005031212009
0.0004938848475
0.0004749497602
0.0004491136893
0.0004189678628
0.0003866697732
0.0003538333669
0.0003215645126
0.0002906003338
0.0002614917703
0.0002347820155
0.0002111514873
0.0001915012403
0.000176922209
0.0001684753302
0.0001667859097
0.000171684388
0.0001822188998
0.0001970337794
0.0002147816678
0.0002343440679
0.0002548760177
0.0002757690891
0.0002965962055
0.0003170633228
0.0003369740577
0.0003562069321
0.0003747077567
0.0003924941905
0.0004097129665
0.0004269602691
0.0004547056794
4.143440951e-05
0.0001383211437
0.0002327448308
0.0003224550698
0.0003960736526
0.0004496164797
0.0004830289217
0.000498027235
0.0004972060963
0.000483479862
0.0004599527463
0.0004297503044
0.0003957158179
0.0003601368133
0.0003246513409
0.0002903502904
0.000258005232
0.0002283396581
0.0002022832733
0.0001811483334
0.0001666000358
0.0001602173697
0.0001626746982
0.000173214087
0.0001900287753
0.000211101226
0.0002347412487
0.0002597092818
0.0002851467123
0.0003104719888
0.0003352958422
0.0003593619251
0.0003825072635
0.000404637063
0.0004257104038
0.0004457393411
0.0004647988677
0.000483090877
0.00050135147
0.0005362227663
4.256034459e-05
0.0001389477576
0.0002356372487
0.0003269049793
0.0004007776591
0.0004531193898
0.000484015441
0.0004954628066
0.000490373831
0.0004719933755
0.0004437905906
0.0004092443994
0.0003714493214
0.0003328003502
0.0002949442575
0.0002589903425
0.0002258738829
0.0001967664227
0.0001734268914
0.0001582487739
0.0001535279083
0.0001599732532
0.0001760039471
0.0001988198206
0.0002257804006
0.0002549334834
0.0002849639736
0.0003150096802
0.0003445086103
0.0003730972657
0.0004005461848
0.0004267188553
0.00045154508
0.0004750043844
0.0004971175593
0.0005179502415
0.0005376268674
0.0005564000023
0.0005751517851
0.0006176707255
4.400197119e-05
0.0001397546312
0.0002386553183
0.0003314098122
0.0004054058078
0.0004563592026
0.0004845189096
0.000492193029
0.0004826383871
0.0004594597055
0.0004265274639
0.0003876974179
0.0003463078598
0.0003048375825
0.0002649485263
0.0002278705498
0.0001949826745
0.0001684355849
0.000151450554
0.0001473545754
0.0001570777243
0.0001780912471
0.0002064831902
0.0002389816767
0.000273379777
0.0003082747138
0.0003427778916
0.0003763242417
0.0004085584675
0.0004392663869
0.0004683316667
0.0004957073286
0.0005213965959
0.0005454410442
0.0005679156163
0.0005889353782
0.0006086731574
0.000627433932
0.000646258119
0.0006973202723
4.57161573e-05
0.0001407224018
0.0002417849793
0.0003359577547
0.0004099472893
0.0004593270469
0.0004845352506
0.000488223123
0.0004740197712
0.0004459212113
0.0004082377247
0.0003652220688
0.0003204425713
0.0002764449848
0.0002349607048
0.0001975765766
0.000166676157
0.0001462399552
0.000141019056
0.0001527202891
0.0001779166518
0.0002113988188
0.0002491486665
0.0002886381864
0.0003283255889
0.0003672549296
0.0004048278859
0.0004406772762
0.0004745925915
0.00050647257
0.0005362930894
0.0005640846917
0.0005899170191
0.000613889593
0.0006361293609
0.0006568004277
0.0006761259728
0.000694468203
0.0007130412117
0.0007738955907
4.766404285e-05
0.0001418344981
0.0002450142671
0.0003405387727
0.0004143932714
0.0004620167127
0.0004840641843
0.000483563637
0.0004645451438
0.000431429592
0.0003890071717
0.0003419434061
0.0002940188517
0.000247851304
0.0002053923743
0.0001690808438
0.0001433087125
0.0001344775242
0.000146125082
0.0001743494705
0.0002123496089
0.0002550991489
0.0002996091384
0.000344115164
0.0003875379113
0.0004292079266
0.0004687220637
0.0005058601475
0.0005405307515
0.0005727330743
0.0006025292588
0.0006300243631
0.0006553526526
0.0006786703592
0.0007001558067
0.0007200226135
0.0007385470052
0.0007561543651
0.0007742492256
0.0008464710834
4.981125923e-05
0.000143076583
0.0002483329635
0.0003451444851
0.0004187369993
0.0004644249715
0.0004831097479
0.0004782311101
0.00045424955
0.0004160465721
0.0003689334409
0.0003179990405
0.0002672196916
0.0002193403508
0.000176873099
0.0001440730828
0.000128597736
0.0001371734329
0.0001666949119
0.0002084418348
0.0002559060758
0.0003054032447
0.0003548250042
0.0004028935859
0.0004488187003
0.000492129497
0.0005325781857
0.000570075707
0.0006046446651
0.0006363838389
0.0006654417377
0.0006919976839
0.0007162496318
0.0007384091342
0.0007587046513
0.0007773990768
0.000794823775
0.0008114730109
0.0008289584551
0.0009143919602
5.21277722e-05
0.0001444361516
0.0002517323658
0.0003497681057
0.0004229738975
0.0004665518124
0.0004816806213
0.000472248406
0.0004431761575
0.0003998439048
0.0003481255289
0.0002935387141
0.0002402514375
0.0001912937709
0.0001504447712
0.0001253945368
0.0001266931284
0.0001547730162
0.0001990820114
0.00025083551
0.0003052635718
0.0003597370695
0.0004126771129
0.0004631043632
0.0005104353677
0.0005543680236
0.0005948030555
0.000631784274
0.0006654519459
0.0006960071009
0.00072368541
0.0007487394081
0.0007714283231
0.0007920159512
0.0008107779989
0.0008280248823
0.0008441437492
0.000859701992
0.0008765335051
0.0009771994867
5.458749337e-05
0.000145902238
0.0002552051466
0.0003544044402
0.000427101673
0.0004684006064
0.0004797902828
0.0004656447518
0.0004313760622
0.0003829027816
0.0003267026001
0.0002687237655
0.0002133551837
0.0001642739327
0.0001278966235
0.0001169528565
0.0001391575955
0.0001840361883
0.0002393429828
0.0002985329206
0.0003581848401
0.0004162754467
0.0004715408114
0.000523219277
0.0005709129831
0.0006144904865
0.0006540095526
0.0006896549226
0.0007216895542
0.0007504182657
0.0007761624096
0.0007992440579
0.0008199787511
0.0008386771695
0.0008556573757
0.0008712737027
0.0008859676794
0.0009003813441
0.0009165823174
0.001034551739
5.716778582e-05
0.0001474651983
0.0002587452603
0.0003590498898
0.0004311203687
0.0004699781489
0.0004774569519
0.0004584554628
0.0004189076658
0.0003653126929
0.0003047922135
0.0002437272299
0.0001868297459
0.0001391840552
0.0001121332157
0.0001217313735
0.0001636156775
0.0002211369947
0.0002846665653
0.0003495347888
0.0004130690346
0.0004735872027
0.0005300534388
0.0005819094258
0.0006289537501
0.0006712415038
0.0007090004022
0.0007425636306
0.0007723190042
0.0007986729805
0.0008220274148
0.0008427669392
0.0008612556873
0.0008778436175
0.0008928843478
0.0009067706045
0.0009199943588
0.0009332697432
0.0009489035989
0.001086146371
5.98489561e-05
0.0001491165495
0.0002623478814
0.0003637024545
0.0004350323711
0.0004712945955
0.0004747033534
0.0004507214076
0.0004058357135
0.0003471698676
0.0002825282126
0.0002187358419
0.0001610779163
0.0001175532481
0.0001067725787
0.0001391113094
0.0001963361867
0.0002633020315
0.0003332057183
0.0004024155913
0.0004686471852
0.0005304527898
0.0005870142947
0.0006379970371
0.0006834205208
0.0007235451488
0.0007587791328
0.000789607023
0.0008165385238
0.0008400747938
0.0008606889764
0.0008788181107
0.0008948648145
0.000909208909
0.0009222312043
0.0009343554606
0.0009461171971
0.0009582947127
0.0009734309991
0.001131654472
6.261378599e-05
0.0001508488502
0.0002660093692
0.0003683617344
0.0004388423791
0.0004723633121
0.0004715563393
0.0004424882722
0.0003922300778
0.000328575415
0.0002600485528
0.0001939560869
0.0001366989131
0.000101884058
0.000113835302
0.0001657915572
0.0002344084843
0.0003087430362
0.0003836690771
0.0004560479589
0.0005238298548
0.0005857890723
0.0006413553985
0.0006904528434
0.0007333482597
0.0007705220663
0.0008025671167
0.0008301155458
0.0008537900116
0.0008741746231
0.000891801006
0.0009071459493
0.000920638782
0.0009326786129
0.0009436639824
0.0009540406409
0.0009643774962
0.0009755027295
0.000990181801
0.001170676188
6.544712906e-05
0.0001526556141
0.0002697272381
0.000373028912
0.0004425573186
0.0004732006297
0.0004680463724
0.0004338056501
0.0003781643441
0.0003096332673
0.0002374933863
0.0001696282296
0.0001146670002
9.542536273e-05
0.0001318149804
0.0001985566129
0.000275972327
0.0003562561961
0.0004350542062
0.0005094649338
0.0005776451774
0.0006386303103
0.0006921461411
0.0007384122313
0.0007779636068
0.0008115070767
0.0008398158184
0.000863658458
0.0008837559807
0.0009007596455
0.0009152441283
0.0009277117906
0.0009386061161
0.0009483344684
0.0009573030305
0.0009659690163
0.0009749212269
0.0009850168242
0.0009992187369
0.001202726238
6.833557945e-05
0.0001545312464
0.0002735001387
0.0003777067257
0.0004461862259
0.0004738255399
0.0004642069247
0.0004247260292
0.0003637142945
0.0002904480569
0.0002150038847
0.0001460560706
9.662824687e-05
0.0001002251687
0.0001574274505
0.0002352609484
0.0003198397523
0.0004049441993
0.0004865115377
0.0005618027737
0.0006292241517
0.0006881359208
0.0007386112314
0.0007811953116
0.0008167018115
0.0008460598067
0.0008702095618
0.0008900383549
0.0009063462731
0.0009198331454
0.0009310998754
0.0009406597748
0.000948958007
0.0009563993387
0.0009633873121
0.0009703788921
0.0009779662863
0.0009870089798
0.001000632462
0.001227253785
7.126720959e-05
0.0001564709974
0.0002773278396
0.0003823994244
0.0004497400916
0.0004742593307
0.0004600738015
0.0004153037058
0.0003489563418
0.0002711230225
0.0001927224762
0.0001236680508
8.513108944e-05
0.0001151212956
0.0001879351349
0.0002745970488
0.0003651842308
0.0004540688974
0.0005372848303
0.0006122860761
0.0006778085941
0.000733608395
0.0007801502241
0.0008183226707
0.0008492155922
0.0008739653118
0.0008936578679
0.0009092760466
0.0009216768151
0.0009315887149
0.0009396219332
0.0009462866617
0.0009520180791
0.0009572081976
0.0009622478372
0.0009675812903
0.0009737856314
0.0009816924875
0.0009945489269
0.001243695691
7.423136822e-05
0.0001584709255
0.0002812111975
0.0003871126943
0.0004532316563
0.0004745251602
0.0004556844003
0.0004055936504
0.0003339659664
0.0002517580467
0.0001707956613
0.0001031399423
8.289556292e-05
0.0001370951155
0.0002216289133
0.0003157364984
0.0004113656758
0.0005029822616
0.0005866922324
0.0006602335964
0.000722767732
0.000774511712
0.0008163519809
0.0008495226044
0.000875373857
0.0008952244672
0.0009102786647
0.000921588268
0.0009300437095
0.0009363825916
0.0009412084461
0.0009450156234
0.0009482190029
0.0009511887684
0.0009542935487
0.0009579525628
0.0009627087692
0.0009693357585
0.0009811608906
0.00125155629
7.721852758e-05
0.000160527873
0.0002851521354
0.0003918535874
0.0004566752071
0.0004746476292
0.0004510769791
0.0003956504153
0.0003188162555
0.0002324479709
0.0001493815877
8.562165372e-05
9.058928713e-05
0.0001635553113
0.0002575084642
0.000358102104
0.0004578428337
0.0005510994788
0.000634127891
0.0007050725188
0.0007636152631
0.0008104847519
0.0008470007512
0.0008747284418
0.0008952505483
0.0009100357138
0.0009203748988
0.0009273613055
0.0009318959583
0.000934707348
0.0009363782835
0.0009373764516
0.0009380878191
0.000938853057
0.0009400102228
0.0009419421023
0.0009451402724
0.0009502944026
0.0009607770941
0.001250501753
8.022016979e-05
0.0001626394421
0.0002891536058
0.0003966304194
0.0004600863313
0.0004746523116
0.0004462898995
0.0003855270599
0.0003035765442
0.0002132812655
0.0001286666205
7.30256691e-05
0.0001061044848
0.0001929038236
0.0002949667416
0.000401246403
0.0005041333445
0.0005978938971
0.0006790726215
0.0007463537178
0.0008000218479
0.0008413466321
0.0008720725381
0.0008940661295
0.0009091049427
0.0009187702515
0.0009244069882
0.0009271229577
0.0009278089019
0.0009271684579
0.0009257520773
0.0009239921708
0.0009222390822
0.0009207979381
0.0009199694886
0.0009200909701
0.0009215893889
0.0009250530581
0.0009338767126
0.001240453123
8.322870143e-05
0.0001648039727
0.0002932195432
0.0004014526511
0.000463481653
0.0004745652762
0.00044136089
0.0003752741519
0.0002883112257
0.0001943392241
0.000108899911
6.783269909e-05
0.000126685942
0.0002242468697
0.0003336028013
0.0004447906413
0.0005497990367
0.0006429025789
0.0007211068154
0.0007837635087
0.0008318203133
0.0008670928581
0.0008917220614
0.0009078334763
0.000917355482
0.0009219429845
0.0009229632528
0.0009215144717
0.0009184592871
0.0009144637588
0.000910037059
0.0009055700333
0.0009013726916
0.0008977104725
0.0008948422949
0.0008930541292
0.0008927013207
0.0008942648028
0.0009011536248
0.001221661174
8.623738806e-05
0.0001670205211
0.0002973548145
0.0004063307669
0.0004668785707
0.0004744126285
0.0004363263614
0.0003649388801
0.0002730787736
0.0001756958905
9.04651972e-05
7.141562739e-05
0.000150407641
0.0002570858027
0.0003731222801
0.0004883959848
0.0005944443207
0.0006857358661
0.0007599213541
0.0008171292756
0.0008590024518
0.0008878825339
0.0009062616268
0.0009164730128
0.0009205492739
0.0009201811353
0.0009167296879
0.0009112630451
0.00090460163
0.0008973644675
0.000890013277
0.0008828933454
0.0008762716568
0.0008703718878
0.0008654092609
0.0008616169678
0.0008592788227
0.0008587746856
0.0008635355997
0.001194748924
8.924030119e-05
0.0001692888348
0.0003015651561
0.0004112761321
0.0004702949824
0.0004742200552
0.000431220767
0.0003545642769
0.0002579309825
0.0001574190216
7.402800643e-05
8.248504414e-05
0.0001761909187
0.0002911312655
0.0004132856868
0.0005317518442
0.0006377207591
0.0007260867857
0.00079532388
0.0008464176984
0.0008817074515
0.0009040177529
0.0009161337055
0.000920540493
0.0009193290906
0.0009141918235
0.0009064596354
0.0008971545786
0.0008870446332
0.000876695554
0.0008665180395
0.0008568099782
0.0008477945925
0.000839653847
0.0008325602322
0.0008266970318
0.0008222837288
0.0008196163261
0.0008221682275
0.00116071284
9.223227214e-05
0.0001716093235
0.0003058571023
0.0004163008469
0.0004737490124
0.0004740123997
0.000426076034
0.0003441885787
0.0002429124569
0.0001395726679
6.080201132e-05
9.849851529e-05
0.0002034753185
0.0003262031808
0.0004538819435
0.0005745732305
0.0006793336796
0.0007637377333
0.0008272390978
0.0008717255145
0.0009002030185
0.0009159170036
0.0009218793803
0.0009206710838
0.0009143994708
0.0009047295767
0.0008929435776
0.0008800061379
0.0008666263563
0.0008533134447
0.0008404258344
0.0008282140936
0.0008168587305
0.0008065020314
0.0007972773312
0.0007893246941
0.0007828121106
0.0007779764886
0.0007783616739
0.001120880821
9.520884762e-05
0.0001739830268
0.0003102379103
0.0004214175976
0.0004772587569
0.00047381328
0.0004209210827
0.0003338447377
0.000228060362
0.0001222224734
5.278084561e-05
0.0001174918301
0.0002319809053
0.0003621772307
0.0004947154673
0.0006166025608
0.0007190482328
0.0007985629589
0.0008557027918
0.0008932636367
0.0009148608871
0.0009240847342
0.0009241048132
0.0009175450703
0.0009064932384
0.0008925645069
0.0008769792265
0.0008606378007
0.0008441873963
0.0008280799459
0.0008126223073
0.0007980193965
0.0007844115386
0.0007719049957
0.0007605995292
0.0007506012994
0.0007420429288
0.0007351301305
0.0007335072418
0.001076831896
9.816624495e-05
0.0001764115773
0.0003147154782
0.0004266395059
0.0004808420361
0.0004736447473
0.0004157814294
0.0003235600796
0.0002134044343
0.0001054459733
5.20091706e-05
0.0001383598325
0.0002615765149
0.0003989555813
0.0005356006339
0.0006576131618
0.0007566932996
0.0008305262616
0.0008808500558
0.0009113360879
0.0009261287694
0.0009290792752
0.0009234477274
0.0009118546708
0.0008963395766
0.000878451874
0.000859342321
0.0008398441095
0.000820542231
0.0008018326032
0.0007839726816
0.0007671245867
0.0007513920598
0.0007368500751
0.0007235715423
0.000711639127
0.0007011668453
0.0006923559248
0.0006889779464
0.001030287872
0.000101101304
0.000178897161
0.0003192982638
0.0004319799897
0.0004845161821
0.0004735270058
0.0004106788952
0.0003133561217
0.0001989672694
8.935292975e-05
5.849809558e-05
0.0001605527113
0.0002922094325
0.0004364505446
0.0005763602471
0.0006974128021
0.0007921624471
0.0008596740595
0.0009028988965
0.000926315634
0.0009345009277
0.0009314812329
0.0009205457221
0.0009042734222
0.0008846348155
0.0008631040232
0.0008407590861
0.0008183662172
0.0007964500998
0.0007753533059
0.0007552870382
0.000736374215
0.0007186861934
0.0007022718629
0.000687184214
0.000673492432
0.0006613069939
0.0006508468263
0.0006460305043
0.0009829907233
0.0001040114355
0.0001814424752
0.0003239952037
0.0004374526311
0.0004882978502
0.0004734781894
0.0004056314096
0.0003032485346
0.0001847648806
7.412736406e-05
7.012388285e-05
0.0001838216062
0.0003238668236
0.0004745754039
0.00061682606
0.0007358462556
0.0008254117038
0.0008861245268
0.0009221307147
0.000938618078
0.0009404893874
0.0009318641524
0.0009160079069
0.0008954293574
0.0008720170232
0.0008471658161
0.0008218816886
0.0007968664358
0.00077258768
0.0007493381204
0.0007272863403
0.0007065199477
0.0006870822596
0.0006690011873
0.0006523161663
0.0006370913809
0.000623445562
0.0006116310891
0.000605724846
0.0009365811549
0.0001068945656
0.0001840506847
0.0003288156337
0.0004430710553
0.0004922028621
0.0004735142002
0.0004006529131
0.0002932472451
0.0001708075559
6.011887663e-05
8.477152971e-05
0.00020807672
0.000356553575
0.0005132393624
0.0006568401864
0.0007727963881
0.0008564543949
0.0009100538629
0.0009388693275
0.0009486770798
0.0009445975348
0.0009307689216
0.000910391062
0.0008858830264
0.0008590454543
0.0008311947875
0.0008032682609
0.0007759072646
0.0007495262806
0.0007243718634
0.000700573658
0.0006781877873
0.0006572336603
0.0006377228169
0.0006196864317
0.0006031900198
0.0005883683902
0.0005755162082
0.0005688723568
0.0008924936168
0.0001097490761
0.0001867253808
0.0003337692266
0.0004488488455
0.0004962461087
0.0004736486334
0.000395753378
0.000283356685
0.0001571010578
4.80418103e-05
0.000101196206
0.0002333132562
0.0003902789571
0.0005523449915
0.0006962567684
0.0008081836817
0.000885353657
0.0009316809901
0.0009534601837
0.0009569211431
0.0009472974987
0.0009286830243
0.0009041812191
0.0008761111798
0.0008461857497
0.0008156471301
0.0007853689263
0.0007559367635
0.0007277159526
0.0007009104364
0.0006756143341
0.0006518557978
0.0006296340473
0.0006089481719
0.0005898251364
0.0005723358638
0.0005566351875
0.000543062531
0.0005360173655
0.0008518804826
0.0001125737436
0.00018947054
0.0003388659284
0.0004547994629
0.000500441475
0.0004738927512
0.0003909389062
0.0002735761434
0.0001436482339
3.932617772e-05
0.0001187901573
0.0002595718689
0.0004250482112
0.0005917871895
0.0007349434793
0.0008419642522
0.000912213316
0.0009512518462
0.0009662510739
0.0009637538982
0.0009490121388
0.0009260251875
0.0008977810396
0.0008664964544
0.000833801298
0.0008008700759
0.0007685186091
0.0007372813084
0.000707477848
0.0006792725965
0.0006527271208
0.0006278447255
0.0006046077138
0.0005830059662
0.0005630651413
0.0005448636601
0.0005285770402
0.0005145867842
0.0005074496195
0.0008155723763
0.0001153676754