/*--------------------------------*- C++ -*----------------------------------*\
| =========                 |                                                 |
| \\      /  F ield         | foam-extend: Open Source CFD                    |
|  \\    /   O peration     | Version:     3.2                                |
|   \\  /    A nd           | Web:         http://www.foam-extend.org         |
|    \\/     M anipulation  | For copyright notice see file Copyright         |
\*---------------------------------------------------------------------------*/
FoamFile
{
    version     2.0;
    format      ascii;
    class       volVectorField;
    location    "0.12";
    object      tppsi;
}
// * * * * * * * * * * * * * * * * * * * * * * * * * * * * * * * * * * * * * //

dimensions      [0 0 0 0 0 0 0];

internalField   nonuniform List<vector> 
18000
(
(1.961864157e-06 -3.092513546e-06 -0.0752479476)
(2.702508237e-06 -2.175212693e-06 -0.116923448)
(2.841268668e-06 -1.551059008e-06 -0.1340888789)
(2.79192539e-06 -1.146099309e-06 -0.1389195826)
(2.687739619e-06 -8.759753627e-07 -0.1385664043)
(2.568612215e-06 -6.869466089e-07 -0.1363130006)
(2.44897699e-06 -5.488941663e-07 -0.1335009712)
(2.333926521e-06 -4.444073197e-07 -0.1306717407)
(2.225235524e-06 -3.63010625e-07 -0.1280294005)
(2.123437931e-06 -2.981145703e-07 -0.1256366066)
(2.028561632e-06 -2.453917342e-07 -0.123498047)
(1.94040572e-06 -2.018883748e-07 -0.1215961468)
(1.858657814e-06 -1.655202923e-07 -0.1199063055)
(1.782951273e-06 -1.347750388e-07 -0.1184032654)
(1.712896879e-06 -1.08528916e-07 -0.1170636066)
(1.648101976e-06 -8.593030585e-08 -0.1158665502)
(1.58818238e-06 -6.632278682e-08 -0.1147940416)
(1.532769645e-06 -4.919297362e-08 -0.1138305441)
(1.481515216e-06 -3.413422523e-08 -0.1129627379)
(1.434092492e-06 -2.082083758e-08 -0.1121792069)
(1.390197508e-06 -8.989338297e-09 -0.1114701493)
(1.349548728e-06 1.575298336e-09 -0.1108271231)
(1.311886301e-06 1.104996284e-08 -0.1102428288)
(1.276970995e-06 1.958122828e-08 -0.1097109279)
(1.244582966e-06 2.729134865e-08 -0.1092258907)
(1.214520437e-06 3.428291298e-08 -0.1087828713)
(1.186598353e-06 4.06424898e-08 -0.1083776033)
(1.160647035e-06 4.644350668e-08 -0.1080063144)
(1.136510861e-06 5.17485413e-08 -0.1076656547)
(1.114047007e-06 5.661115563e-08 -0.1073526371)
(1.093124243e-06 6.107737509e-08 -0.1070645874)
(1.073621842e-06 6.518688884e-08 -0.1067991023)
(1.055428676e-06 6.897404071e-08 -0.1065540153)
(1.038442677e-06 7.246868048e-08 -0.1063273693)
(1.022571008e-06 7.569696384e-08 -0.1061173986)
(1.007731497e-06 7.868222601e-08 -0.1059225231)
(9.938561335e-07 8.144615525e-08 -0.10574136)
(9.808964058e-07 8.401097402e-08 -0.1055727663)
(9.688135606e-07 8.640766844e-08 -0.10541598)
(9.571447802e-07 8.872785182e-08 -0.105271567)
(2.376625322e-06 -4.20102528e-06 0.001728923598)
(4.05737544e-06 -3.529307517e-06 -0.0006628977471)
(5.136626699e-06 -2.983418126e-06 -0.002106162559)
(5.880963617e-06 -2.546839217e-06 -0.001819182561)
(6.404871007e-06 -2.187319053e-06 -0.0008104037689)
(6.767648648e-06 -1.883450683e-06 0.000306606802)
(7.008095715e-06 -1.621895324e-06 0.001287535623)
(7.153677314e-06 -1.39384491e-06 0.002050782761)
(7.225215261e-06 -1.193194425e-06 0.002587038863)
(7.239017791e-06 -1.015490679e-06 0.002916403778)
(7.208071456e-06 -8.57339344e-07 0.003068790424)
(7.142796183e-06 -7.16059416e-07 0.003075224232)
(7.051577708e-06 -5.894740082e-07 0.002964231345)
(6.941166962e-06 -4.757777299e-07 0.00276059871)
(6.816991249e-06 -3.73448794e-07 0.002485216416)
(6.683402196e-06 -2.811883117e-07 0.002155384492)
(6.543875689e-06 -1.978767522e-07 0.00178528472)
(6.401174094e-06 -1.22541676e-07 0.001386474598)
(6.257478356e-06 -5.433315216e-08 0.0009683400578)
(6.114495814e-06 7.495410219e-09 0.0005384841465)
(5.973548326e-06 6.36025154e-08 0.0001030490482)
(5.83564442e-06 1.145709208e-07 -0.0003330222861)
(5.70153842e-06 1.609177703e-07 -0.0007657754324)
(5.571778938e-06 2.031030263e-07 -0.001192074855)
(5.446748668e-06 2.415365622e-07 -0.001609466644)
(5.326697025e-06 2.765841925e-07 -0.002016066857)
(5.211766915e-06 3.085728341e-07 -0.002410470221)
(5.102016654e-06 3.377949622e-07 -0.002791675529)
(4.997437874e-06 3.645124747e-07 -0.003159024773)
(4.897970149e-06 3.889600547e-07 -0.003512153905)
(4.803512817e-06 4.113481085e-07 -0.003850954309)
(4.713934496e-06 4.318653185e-07 -0.004175545503)
(4.629080539e-06 4.506808414e-07 -0.004486262334)
(4.548778587e-06 4.679461486e-07 -0.004783663722)
(4.472842122e-06 4.837964783e-07 -0.00506857594)
(4.401071487e-06 4.983518721e-07 -0.005342192556)
(4.333249612e-06 5.11718324e-07 -0.005606263146)
(4.269110204e-06 5.239952728e-07 -0.005863456535)
(4.208057405e-06 5.353572872e-07 -0.00611825603)
(4.145673146e-06 5.468177824e-07 -0.006380525592)
(2.631211196e-06 -4.566853292e-06 0.01742701991)
(4.764115948e-06 -3.895337371e-06 0.02790946833)
(6.224927856e-06 -3.318696079e-06 0.03435062349)
(7.264612514e-06 -2.837704575e-06 0.04008023167)
(8.011779449e-06 -2.42821253e-06 0.04531196927)
(8.540160938e-06 -2.073658918e-06 0.05001390878)
(8.900305297e-06 -1.763136558e-06 0.05419484918)
(9.129329687e-06 -1.488986078e-06 0.05789005934)
(9.25580375e-06 -1.245544175e-06 0.06114616413)
(9.30224258e-06 -1.028436862e-06 0.06401174693)
(9.286605029e-06 -8.341662937e-07 0.06653284661)
(9.223287389e-06 -6.598600115e-07 0.06875108161)
(9.123855039e-06 -5.031133835e-07 0.07070324341)
(8.997598011e-06 -3.61884463e-07 0.07242149969)
(8.851965896e-06 -2.344205802e-07 0.07393383955)
(8.692915232e-06 -1.192049656e-07 0.0752645917)
(8.525189621e-06 -1.491649734e-08 0.07643492962)
(8.352546932e-06 7.96015511e-08 0.07746332833)
(8.177944209e-06 1.653663325e-07 0.07836596084)
(8.003688491e-06 2.432754949e-07 0.07915703441)
(7.831559993e-06 3.141236488e-07 0.0798490724)
(7.662912789e-06 3.786160354e-07 0.08045314884)
(7.498757146e-06 4.373799855e-07 0.08097908368)
(7.339826821e-06 4.909746156e-07 0.08143560549)
(7.18663405e-06 5.398990887e-07 0.08183048755)
(7.039514409e-06 5.845997062e-07 0.08217066206)
(6.898663398e-06 6.254760228e-07 0.08246231624)
(6.764166186e-06 6.62886153e-07 0.08271097332)
(6.636021772e-06 6.971513936e-07 0.0829215612)
(6.514162555e-06 7.285602591e-07 0.0830984709)
(6.398470094e-06 7.573720286e-07 0.08324560654)
(6.288787747e-06 7.838198606e-07 0.08336642809)
(6.184930622e-06 8.081135495e-07 0.08346398847)
(6.086693093e-06 8.304419911e-07 0.08354096691)
(5.993853581e-06 8.509754803e-07 0.0835997014)
(5.906174584e-06 8.698682341e-07 0.08364222462)
(5.823387371e-06 8.872633553e-07 0.08367031247)
(5.745093872e-06 9.033137505e-07 0.08368544261)
(5.670184947e-06 9.183299614e-07 0.08368853624)
(5.591558776e-06 9.336658011e-07 0.08365797475)
(2.828543519e-06 -4.800215677e-06 0.02235633522)
(5.288361872e-06 -4.090511338e-06 0.03861165111)
(7.008262907e-06 -3.464111593e-06 0.04903054794)
(8.232145675e-06 -2.934848588e-06 0.05763149994)
(9.105028936e-06 -2.480266154e-06 0.06511861384)
(9.713858025e-06 -2.08447382e-06 0.07171643946)
(1.011931144e-05 -1.736707216e-06 0.07756006214)
(1.036657422e-05 -1.429187932e-06 0.08275241475)
(1.049066412e-05 -1.156002104e-06 0.08737882109)
(1.051924635e-05 -9.124681942e-07 0.09151182006)
(1.047437969e-05 -6.947648744e-07 0.0952135652)
(1.037371403e-05 -4.997033719e-07 0.09853745778)
(1.023137948e-05 -3.245812622e-07 0.1015294949)
(1.005867316e-05 -1.670830973e-07 0.104229393)
(9.864602457e-06 -2.520919119e-08 0.1066715213)
(9.656320733e-06 1.027778082e-07 0.1088856771)
(9.439479201e-06 2.183944956e-07 0.1108977333)
(9.218512704e-06 3.229699455e-07 0.112730186)
(8.996872189e-06 4.176727901e-07 0.114402621)
(8.777214085e-06 5.035335739e-07 0.1159321128)
(8.561554671e-06 5.814633968e-07 0.1173335693)
(8.351395938e-06 6.522695803e-07 0.1186200287)
(8.147828169e-06 7.166689206e-07 0.119802917)
(7.951613452e-06 7.752989716e-07 0.12089227)
(7.763253597e-06 8.287276985e-07 0.1218969249)
(7.583045248e-06 8.774617874e-07 0.1228246847)
(7.411124551e-06 9.219538207e-07 0.123682458)
(7.247503238e-06 9.626085105e-07 0.1244763794)
(7.092097699e-06 9.997881289e-07 0.1252119104)
(6.944752346e-06 1.033817252e-06 0.1258939258)
(6.805258225e-06 1.06498693e-06 0.126526787)
(6.673367731e-06 1.093558355e-06 0.1271144052)
(6.548805859e-06 1.11976614e-06 0.1276602972)
(6.43127785e-06 1.143821336e-06 0.128167641)
(6.320471283e-06 1.165914614e-06 0.1286393467)
(6.216043903e-06 1.186220935e-06 0.1290781762)
(6.117562354e-06 1.204911946e-06 0.1294870585)
(6.024225541e-06 1.222201302e-06 0.1298698624)
(5.933709029e-06 1.238567924e-06 0.1302355737)
(5.83597065e-06 1.25561477e-06 0.1305974534)
(3.004487849e-06 -4.979488998e-06 0.02401396799)
(5.735208259e-06 -4.222795836e-06 0.04329425112)
(7.664510546e-06 -3.543248099e-06 0.05608916872)
(9.02811255e-06 -2.966267017e-06 0.06644280204)
(9.98680431e-06 -2.469524893e-06 0.0752966573)
(1.064017842e-05 -2.03671706e-06 0.08301434907)
(1.105868924e-05 -1.656596762e-06 0.08980678312)
(1.129529206e-05 -1.320909511e-06 0.0958212099)
(1.139120569e-05 -1.023287362e-06 0.1011707701)
(1.137902256e-05 -7.586215511e-07 0.105946778)
(1.12846879e-05 -5.226946943e-07 0.1102249633)
(1.112889046e-05 -3.119562553e-07 0.1140691669)
(1.092811116e-05 -1.233777795e-07 0.1175337949)
(1.069544357e-05 4.564650596e-08 0.1206655515)
(1.044124826e-05 1.973722823e-07 0.1235047135)
(1.017367975e-05 3.337609552e-07 0.1260861032)
(9.899112871e-06 4.565242219e-07 0.1284398604)
(9.622488625e-06 5.671605291e-07 0.1305920794)
(9.347595148e-06 6.669853268e-07 0.1325653511)
(9.077295955e-06 7.571563833e-07 0.1343792332)
(8.813715351e-06 8.386950888e-07 0.1360506636)
(8.55838894e-06 9.12504452e-07 0.1375943242)
(8.31238567e-06 9.793843625e-07 0.13902296)
(8.076406617e-06 1.040044591e-06 0.140347659)
(7.850864801e-06 1.095115907e-06 0.1415780934)
(7.635949502e-06 1.145159627e-06 0.1427227285)
(7.431677978e-06 1.190675859e-06 0.1437890004)
(7.237936882e-06 1.232110645e-06 0.1447834663)
(7.054515314e-06 1.269862181e-06 0.1457119326)
(6.881131061e-06 1.30428624e-06 0.1465795618)
(6.717451149e-06 1.335700951e-06 0.1473909634)
(6.563107546e-06 1.364391023e-06 0.1481502722)
(6.417708057e-06 1.390611568e-06 0.1488612204)
(6.280840843e-06 1.414591855e-06 0.1495272186)
(6.152066344e-06 1.436539835e-06 0.1501514842)
(6.030874925e-06 1.456650171e-06 0.1507373218)
(5.916541139e-06 1.475125992e-06 0.1512889628)
(5.807622467e-06 1.492244471e-06 0.1518138622)
(5.700369218e-06 1.508602654e-06 0.1523323191)
(5.582831778e-06 1.525778757e-06 0.1528944863)
(3.180137446e-06 -5.136480399e-06 0.02455591153)
(6.158510134e-06 -4.32843119e-06 0.04562458403)
(8.276112709e-06 -3.593920441e-06 0.06005051711)
(9.759744362e-06 -2.969007429e-06 0.07164867042)
(1.078541513e-05 -2.430963408e-06 0.08147970027)
(1.146536361e-05 -1.962659803e-06 0.08999037627)
(1.188000804e-05 -1.552107263e-06 0.09744176272)
(1.209026246e-05 -1.190414776e-06 0.1040127489)
(1.214369224e-05 -8.706581285e-07 0.1098378296)
(1.207790431e-05 -5.872324381e-07 0.1150236389)
(1.192276046e-05 -3.354753637e-07 0.1196575242)
(1.170196817e-05 -1.114388381e-07 0.1238125536)
(1.143430074e-05 8.825769133e-08 0.1275507108)
(1.113456287e-05 2.665287731e-07 0.1309250469)
(1.0814366e-05 4.258984694e-07 0.1339811945)
(1.048275449e-05 5.685598823e-07 0.1367584846)
(1.014671248e-05 6.964238754e-07 0.1392908186)
(9.811574372e-06 8.111597508e-07 0.1416073882)
(9.481357287e-06 9.142294966e-07 0.1437332952)
(9.159030182e-06 1.006916695e-06 0.1456901005)
(8.846731407e-06 1.090350946e-06 0.1474963137)
(8.545944392e-06 1.165528514e-06 0.1491678304)
(8.257639255e-06 1.2333298e-06 0.1507183187)
(7.982386663e-06 1.294534181e-06 0.1521595586)
(7.720449174e-06 1.349832654e-06 0.1535017347)
(7.471854257e-06 1.399838662e-06 0.1547536883)
(7.2364525e-06 1.445097399e-06 0.1559231292)
(7.013963785e-06 1.48609387e-06 0.1570168149)
(6.804013734e-06 1.523259879e-06 0.1580407004)
(6.606162245e-06 1.55698014e-06 0.1590000634)
(6.419925386e-06 1.58759764e-06 0.1598996102)
(6.244791342e-06 1.615418418e-06 0.1607435702)
(6.080229749e-06 1.640715969e-06 0.1615357925)
(5.925690653e-06 1.663735735e-06 0.1622798703)
(5.780581235e-06 1.684701008e-06 0.1629793692)
(5.64418504e-06 1.703823678e-06 0.1636383303)
(5.515429492e-06 1.721331532e-06 0.1642626397)
(5.392219339e-06 1.7375373e-06 0.1648632245)
(5.269693395e-06 1.753057523e-06 0.1654668477)
(5.135128332e-06 1.76924842e-06 0.1661312151)
(3.363238162e-06 -5.282368189e-06 0.02470743652)
(6.580236743e-06 -4.419350902e-06 0.04694584888)
(8.876477485e-06 -3.628217172e-06 0.06260563685)
(1.04698295e-05 -2.954644715e-06 0.07518245973)
(1.155121657e-05 -2.375233888e-06 0.08579300554)
(1.224580788e-05 -1.871829412e-06 0.09493645298)
(1.264444028e-05 -1.431564505e-06 0.1029092232)
(1.281641592e-05 -1.04482148e-06 0.109914285)
(1.281599215e-05 -7.040545582e-07 0.1161034892)
(1.268603919e-05 -4.031117835e-07 0.121596583)
(1.24604935e-05 -1.36844354e-07 0.1264912606)
(1.216616309e-05 9.912721605e-08 0.1308690426)
(1.182413602e-05 3.085624685e-07 0.13479898)
(1.145090737e-05 4.947051376e-07 0.1383400925)
(1.105928912e-05 6.603623558e-07 0.1415430417)
(1.065914646e-05 8.079688847e-07 0.1444513466)
(1.025799336e-05 9.396410677e-07 0.1471023334)
(9.86147364e-06 1.05722274e-06 0.1495279317)
(9.473749169e-06 1.162324328e-06 0.1517553783)
(9.097812647e-06 1.256356009e-06 0.1538078531)
(8.735739145e-06 1.340555728e-06 0.155705058)
(8.388888048e-06 1.416012797e-06 0.1574637381)
(8.058064759e-06 1.483687765e-06 0.1590981445)
(7.743649829e-06 1.544429197e-06 0.1606204397)
(7.445701745e-06 1.59898788e-06 0.1620410453)
(7.164038415e-06 1.648028934e-06 0.1633689375)
(6.898301539e-06 1.692142184e-06 0.1646118943)
(6.648007129e-06 1.731851107e-06 0.1657767007)
(6.412584911e-06 1.767620591e-06 0.1668693179)
(6.191408668e-06 1.799863705e-06 0.1678950235)
(5.983818894e-06 1.82894764e-06 0.1688585292)
(5.789138202e-06 1.855199007e-06 0.1697640884)
(5.606677946e-06 1.87890873e-06 0.1706156135)
(5.435729964e-06 1.90033707e-06 0.1714168434)
(5.275526677e-06 1.919720231e-06 0.1721716734)
(5.125125129e-06 1.937281814e-06 0.1728848689)
(4.983111184e-06 1.953259828e-06 0.1735638812)
(4.846852957e-06 1.967965379e-06 0.1742226649)
(4.71079205e-06 1.981955458e-06 0.1748931664)
(4.562149791e-06 1.996284401e-06 0.1756393973)
(3.557166585e-06 -5.42282995e-06 0.02474827214)
(7.011597318e-06 -4.501326894e-06 0.04783534612)
(9.482771733e-06 -3.651762703e-06 0.06450157263)
(1.11800626e-05 -2.928427209e-06 0.07790640667)
(1.23092804e-05 -2.307058764e-06 0.0891870464)
(1.300903631e-05 -1.768353936e-06 0.09887686502)
(1.33812379e-05 -1.29848658e-06 0.1072985691)
(1.350417553e-05 -8.870515887e-07 0.1146745313)
(1.343928317e-05 -5.258306248e-07 0.1211714816)
(1.323505192e-05 -2.080790225e-07 0.126920942)
(1.292973393e-05 7.187962194e-08 0.13203023)
(1.255338138e-05 3.18891994e-07 0.1365889354)
(1.212946538e-05 5.371260657e-07 0.1406729733)
(1.16761843e-05 7.301775461e-07 0.1443472054)
(1.120752527e-05 9.011532481e-07 0.1476672043)
(1.073412384e-05 1.052741034e-06 0.1506805249)
(1.026395808e-05 1.187270225e-06 0.1534277136)
(9.802907543e-06 1.306763924e-06 0.1559431804)
(9.355202226e-06 1.412983949e-06 0.158255996)
(8.923782507e-06 1.507468977e-06 0.1603906319)
(8.510586956e-06 1.591566643e-06 0.1623676455)
(8.116781945e-06 1.666460386e-06 0.1642043005)
(7.742944297e-06 1.733191871e-06 0.1659151192)
(7.389206058e-06 1.792679754e-06 0.1675123612)
(7.055368838e-06 1.845735463e-06 0.1690064321)
(6.740993652e-06 1.893076567e-06 0.1704062244)
(6.445471208e-06 1.935338179e-06 0.1717193995)
(6.168076456e-06 1.973082771e-06 0.1729526169)
(5.908010568e-06 2.006808677e-06 0.1741117208)
(5.664432698e-06 2.036957502e-06 0.1752018917)
(5.436482964e-06 2.063920625e-06 0.1762277747)
(5.223296918e-06 2.088044959e-06 0.1771935981)
(5.024009127e-06 2.109638211e-06 0.1781033128)
(4.83773796e-06 2.128974067e-06 0.1789608041)
(4.663531493e-06 2.146298554e-06 0.1797703149)
(4.500225772e-06 2.161839882e-06 0.1805373297)
(4.346111822e-06 2.17583024e-06 0.1812706839)
(4.198165874e-06 2.188546452e-06 0.1819866202)
(4.050432959e-06 2.200433772e-06 0.1827200747)
(3.890350268e-06 2.212218659e-06 0.1835363512)
(3.762706144e-06 -5.560302217e-06 0.02479054746)
(7.45739736e-06 -4.57696624e-06 0.04856042555)
(1.010279307e-05 -3.667166895e-06 0.06609766593)
(1.190030325e-05 -2.89285837e-06 0.08024049089)
(1.307080418e-05 -2.228755923e-06 0.09212657247)
(1.376702609e-05 -1.654328712e-06 0.1023122917)
(1.410274799e-05 -1.154739187e-06 0.1111409218)
(1.416597665e-05 -7.187508646e-07 0.1188513209)
(1.402590964e-05 -3.374294498e-07 0.1256236004)
(1.373709337e-05 -3.393727267e-09 0.1316003114)
(1.334239078e-05 2.896027242e-07 0.1368980714)
(1.287527821e-05 5.469118929e-07 0.1416144542)
(1.236170091e-05 7.731417424e-07 0.1458322728)
(1.182158711e-05 9.722641245e-07 0.1496222931)
(1.127008085e-05 1.147702743e-06 0.1530450221)
(1.071854044e-05 1.302410056e-06 0.1561519987)
(1.01753426e-05 1.438935675e-06 0.1589868472)
(9.646527382e-06 1.559486544e-06 0.1615862324)
(9.136313698e-06 1.665978852e-06 0.1639807698)
(8.647510314e-06 1.760081969e-06 0.1661958953)
(8.181842531e-06 1.843255116e-06 0.1682526795)
(7.740211136e-06 1.916777708e-06 0.1701685706)
(7.322896965e-06 1.9817744e-06 0.1719580498)
(6.929721832e-06 2.039235834e-06 0.1736331955)
(6.560174583e-06 2.09003593e-06 0.1752041569)
(6.213509237e-06 2.134946438e-06 0.1766795434)
(5.888820964e-06 2.174649308e-06 0.1780667393)
(5.585104341e-06 2.209747326e-06 0.1793721549)
(5.301297528e-06 2.240773321e-06 0.180601426)
(5.036315025e-06 2.26819819e-06 0.1817595728)
(4.789070606e-06 2.292437931e-06 0.1828511327)
(4.55849056e-06 2.313859809e-06 0.1838802861)
(4.343514366e-06 2.332787796e-06 0.1848510103)
(4.143073791e-06 2.349507541e-06 0.1857673278)
(3.956028755e-06 2.364271577e-06 0.1866338049)
(3.781010382e-06 2.377305789e-06 0.1874565697)
(3.616072242e-06 2.388822956e-06 0.1882456453)
(3.45793031e-06 2.399042263e-06 0.1890191954)
(3.300449582e-06 2.408267233e-06 0.189814852)
(3.13142155e-06 2.416889014e-06 0.1907003915)
(3.979309642e-06 -5.695637149e-06 0.02487826185)
(7.91899951e-06 -4.647482974e-06 0.04925107418)
(1.073936365e-05 -3.675817759e-06 0.0675784772)
(1.26342371e-05 -2.84941286e-06 0.08240459855)
(1.383987816e-05 -2.141824697e-06 0.09485679191)
(1.452394146e-05 -1.531246221e-06 0.1055075664)
(1.481299886e-05 -1.001797858e-06 0.1147171826)
(1.480560497e-05 -5.41379454e-07 0.1227392264)
(1.457938741e-05 -1.40301955e-07 0.1297663682)
(1.419543748e-05 2.094961669e-07 0.1359518744)
(1.370155812e-05 5.148758386e-07 0.141421645)
(1.31348475e-05 7.817347857e-07 0.1462813908)
(1.252382256e-05 1.015154001e-06 0.1506210458)
(1.18901668e-05 1.219505931e-06 0.1545174831)
(1.125015754e-05 1.398547675e-06 0.1580362617)
(1.061582046e-05 1.555506547e-06 0.1612328981)
(9.995856464e-06 1.693158449e-06 0.16415396)
(9.396381561e-06 1.813897693e-06 0.1668381224)
(8.821515162e-06 1.919797225e-06 0.1693172222)
(8.273846333e-06 2.012659208e-06 0.1716172927)
(7.754802151e-06 2.094056687e-06 0.1737595417)
(7.264937772e-06 2.165367577e-06 0.1757612413)
(6.804163953e-06 2.227802296e-06 0.1776365056)
(6.371924679e-06 2.282426361e-06 0.1793969507)
(5.967335083e-06 2.330179031e-06 0.1810522382)
(5.589287804e-06 2.371888908e-06 0.1826105119)
(5.236534378e-06 2.408287163e-06 0.1840787426)
(4.907746836e-06 2.440018904e-06 0.1854629961)
(4.601563627e-06 2.467653056e-06 0.186768639)
(4.316622946e-06 2.491690979e-06 0.188000499)
(4.051585252e-06 2.51257401e-06 0.1891629968)
(3.805145144e-06 2.530689981e-06 0.1902602731)
(3.576029554e-06 2.546378726e-06 0.1912963515)
(3.362972819e-06 2.559936472e-06 0.1922754132)
(3.164646731e-06 2.57161921e-06 0.1932023534)
(2.979497256e-06 2.581644487e-06 0.1940838989)
(2.805394782e-06 2.590194749e-06 0.1949311031)
(2.638901412e-06 2.597414176e-06 0.1957637198)
(2.473854403e-06 2.603442789e-06 0.1966215521)
(2.298487326e-06 2.608326032e-06 0.197574357)
(4.205658931e-06 -5.8287434e-06 0.02502494594)
(8.395629509e-06 -4.7133096e-06 0.04996888289)
(1.139219652e-05 -3.678466026e-06 0.06903917776)
(1.338172597e-05 -2.799070569e-06 0.0845153918)
(1.461625297e-05 -2.047413909e-06 0.09750933147)
(1.527926065e-05 -1.400390332e-06 0.1086055003)
(1.551113375e-05 -8.410652303e-07 0.1181789878)
(1.542188905e-05 -3.564516929e-07 0.1264971438)
(1.5098311e-05 6.392980887e-08 0.1337648526)
(1.460856215e-05 4.28865641e-07 0.1401460998)
(1.400573138e-05 7.458779672e-07 0.1457762865)
(1.33307384e-05 1.021452481e-06 0.1507696022)
(1.261476177e-05 1.261176563e-06 0.1552234689)
(1.188125293e-05 1.469846438e-06 0.1592211653)
(1.114758348e-05 1.651566757e-06 0.1628334599)
(1.042637516e-05 1.809847201e-06 0.1661198311)
(9.726562951e-06 1.947693454e-06 0.1691296067)
(9.054239483e-06 2.067688837e-06 0.1719031552)
(8.413322564e-06 2.17206435e-06 0.1744731322)
(7.806081075e-06 2.262756703e-06 0.1768657285)
(7.233547856e-06 2.341455295e-06 0.1791018531)
(6.69584269e-06 2.409639785e-06 0.1811981998)
(6.192423825e-06 2.468610091e-06 0.1831681679)
(5.722282775e-06 2.519510543e-06 0.1850226256)
(5.284094222e-06 2.563349604e-06 0.1867705255)
(4.876330384e-06 2.601016291e-06 0.1884193857)
(4.497347463e-06 2.633294098e-06 0.1899756571)
(4.145450083e-06 2.660873006e-06 0.1914449994)
(3.818938421e-06 2.684359986e-06 0.1928324859)
(3.516141568e-06 2.704288205e-06 0.1941427559)
(3.235439176e-06 2.721125085e-06 0.1953801382)
(2.975271807e-06 2.735279163e-06 0.1965487716)
(2.734137035e-06 2.747105586e-06 0.197652769)
(2.510562085e-06 2.756909738e-06 0.1986965094)
(2.303031781e-06 2.764948312e-06 0.1996852377)
(2.109826122e-06 2.771425676e-06 0.2006262645)
(1.928680517e-06 2.776485914e-06 0.2015316022)
(1.756092579e-06 2.780186179e-06 0.202422494)
(1.586000105e-06 2.782487985e-06 0.2033409737)
(1.4071874e-06 2.783079966e-06 0.2043596129)
(4.440123236e-06 -5.959082057e-06 0.02523037159)
(8.885417919e-06 -4.774507589e-06 0.05073985763)
(1.205934842e-05 -3.675565484e-06 0.07052671928)
(1.414058992e-05 -2.742587048e-06 0.08663325983)
(1.539739149e-05 -1.946521813e-06 0.1001537432)
(1.60300487e-05 -1.262966473e-06 0.1116822974)
(1.619386219e-05 -6.739330813e-07 0.1216076419)
(1.6011293e-05 -1.655320444e-07 0.1302104778)
(1.557905402e-05 2.735406445e-07 0.1377079042)
(1.497292686e-05 6.528422554e-07 0.1442748697)
(1.425163444e-05 9.806052429e-07 0.1500566827)
(1.346010662e-05 1.263946595e-06 0.1551765055)
(1.263225491e-05 1.508992404e-06 0.159739726)
(1.179328943e-05 1.720982906e-06 0.1638363816)
(1.096161469e-05 1.90438043e-06 0.1675426013)
(1.015035547e-05 2.062980443e-06 0.17092175)
(9.368570723e-06 2.200018491e-06 0.1740256367)
(8.622212129e-06 2.318266239e-06 0.1768958959)
(7.914877502e-06 2.420112904e-06 0.1795654927)
(7.248400691e-06 2.507631419e-06 0.1820602461)
(6.623311842e-06 2.582630752e-06 0.1844002665)
(6.039195045e-06 2.646696724e-06 0.1866012324)
(5.49496482e-06 2.70122388e-06 0.18867547)
(4.989078478e-06 2.747440704e-06 0.1906328274)
(4.519697957e-06 2.786429995e-06 0.1924813566)
(4.084811882e-06 2.819145795e-06 0.1942278305)
(3.68232653e-06 2.846427812e-06 0.1958781216)
(3.310132454e-06 2.869013978e-06 0.1974374738)
(2.966152131e-06 2.887551547e-06 0.1989106935)
(2.648372649e-06 2.902606918e-06 0.2003022851)
(2.354865941e-06 2.914674264e-06 0.2016165559)
(2.083797289e-06 2.924182782e-06 0.2028577229)
(1.833419569e-06 2.931502185e-06 0.2040300713)
(1.602044703e-06 2.936945459e-06 0.2051382539)
(1.387972473e-06 2.940767405e-06 0.2061879247)
(1.189334556e-06 2.943155098e-06 0.2071870046)
(1.003773348e-06 2.944207912e-06 0.2081484443)
(8.277985439e-07 2.943886778e-06 0.2090949153)
(6.555632772e-07 2.941962404e-06 0.2100706451)
(4.765323843e-07 2.937753869e-06 0.2111512185)
(4.681085197e-06 -6.085978392e-06 0.02548844083)
(9.386139029e-06 -4.830990731e-06 0.05157120845)
(1.273823333e-05 -3.667426779e-06 0.07206119656)
(1.490782188e-05 -2.680585943e-06 0.08878671155)
(1.617983187e-05 -1.840031482e-06 0.1028242107)
(1.677242629e-05 -1.120083522e-06 0.1147761826)
(1.685699844e-05 -5.017140355e-07 0.125044418)
(1.656949274e-05 2.988021206e-08 0.1339229388)
(1.601735507e-05 4.868614718e-07 0.141641307)
(1.528454319e-05 8.796063454e-07 0.1483858601)
(1.44357528e-05 1.217108964e-06 0.1543123715)
(1.352009124e-05 1.507161157e-06 0.1595535932)
(1.257424742e-05 1.756457466e-06 0.1642234337)
(1.162515254e-05 1.970697604e-06 0.1684190552)
(1.069215535e-05 2.154706072e-06 0.1722220437)
(9.788765616e-06 2.312562311e-06 0.1756994652)
(8.924033443e-06 2.447727868e-06 0.1789051914)
(8.103631923e-06 2.563159802e-06 0.1818815518)
(7.330702864e-06 2.661405013e-06 0.1846611857)
(6.606515043e-06 2.744674904e-06 0.1872689173)
(5.930974602e-06 2.814902642e-06 0.1897235019)
(5.303019012e-06 2.873786468e-06 0.1920391448)
(4.720919367e-06 2.922822617e-06 0.1942267521)
(4.182510533e-06 2.963330838e-06 0.1962949127)
(3.6853647e-06 2.996474864e-06 0.1982506374)
(3.226920595e-06 3.023279464e-06 0.2000998941)
(2.804578224e-06 3.044645151e-06 0.2018479815)
(2.415766816e-06 3.06136122e-06 0.2034997798)
(2.057992069e-06 3.074117463e-06 0.2050599137)
(1.72886731e-06 3.083514708e-06 0.2065328573)
(1.426131537e-06 3.090074126e-06 0.2079230126)
(1.147655602e-06 3.094245003e-06 0.2092347934)
(8.914345811e-07 3.096410313e-06 0.2104727715)
(6.555589008e-07 3.096888672e-06 0.2116419789)
(4.38146322e-07 3.095930272e-06 0.2127485677)
(2.371969597e-07 3.093701283e-06 0.2138011381)
(5.029800056e-08 3.090251531e-06 0.2148136262)
(-1.259598743e-07 3.085439357e-06 0.2158101856)
(-2.970987544e-07 3.078836298e-06 0.2168373922)
(-4.728236116e-07 3.069382431e-06 0.2179743705)
(4.927165649e-06 -6.208827517e-06 0.0257912426)
(9.895739227e-06 -4.882662689e-06 0.05246088132)
(1.34263556e-05 -3.65429958e-06 0.07364831852)
(1.568046099e-05 -2.613593173e-06 0.09098674179)
(1.696015312e-05 -1.728701369e-06 0.10553533)
(1.750258845e-05 -9.727043277e-07 0.1179043346)
(1.749650045e-05 -3.25555348e-07 0.1285084752)
(1.70924074e-05 2.28470795e-07 0.1376553235)
(1.64093182e-05 7.024297229e-07 0.1455873306)
(1.553992474e-05 1.107569035e-06 0.1525027889)
(1.455521659e-05 1.453698223e-06 0.1585686178)
(1.350861766e-05 1.74932673e-06 0.1639278739)
(1.243960632e-05 2.001743052e-06 0.1687035881)
(1.137676519e-05 2.217115324e-06 0.1730003845)
(1.034026871e-05 2.400627708e-06 0.1769053)
(9.343866692e-06 2.556635908e-06 0.1804887615)
(8.396443831e-06 2.688819747e-06 0.1838061092)
(7.503236116e-06 2.8003171e-06 0.1868996333)
(6.666775334e-06 2.893832359e-06 0.1898008842)
(5.887619878e-06 2.971719379e-06 0.1925329866)
(5.164917953e-06 3.036042674e-06 0.1951127511)
(4.496839419e-06 3.088621946e-06 0.1975524615)
(3.880904566e-06 3.131064791e-06 0.1998612998)
(3.314232088e-06 3.164791545e-06 0.2020464231)
(2.793723898e-06 3.191055146e-06 0.2041137384)
(2.316200702e-06 3.210957889e-06 0.2060684327)
(1.878499505e-06 3.22546626e-06 0.2079153169)
(1.477541751e-06 3.235424439e-06 0.2096590354)
(1.110379017e-06 3.241566762e-06 0.2113041831)
(7.742215345e-07 3.24452915e-06 0.2128553675)
(4.664530889e-07 3.244859317e-06 0.2143172491)
(1.846341479e-07 3.243025266e-06 0.2156945967)
(-7.350790067e-08 3.239421144e-06 0.2169924165)
(-3.101074805e-07 3.234368522e-06 0.2182162531)
(-5.27223963e-07 3.228109836e-06 0.219372874)
(-7.269720239e-07 3.220786774e-06 0.2204716595)
(-9.117846582e-07 3.212395573e-06 0.2215276207)
(-1.08492717e-06 3.202687542e-06 0.2225664958)
(-1.251492892e-06 3.191029859e-06 0.2236373855)
(-1.420199309e-06 3.175978554e-06 0.2248233647)
(5.177330838e-06 -6.327194823e-06 0.02613108943)
(1.041262399e-05 -4.929481947e-06 0.05340302501)
(1.412172202e-05 -3.636407318e-06 0.07528683891)
(1.645608389e-05 -2.542045242e-06 0.09323548072)
(1.77355093e-05 -1.613149523e-06 0.1082916264)
(1.821735146e-05 -8.216080021e-07 0.1210730715)
(1.810900447e-05 -1.46381536e-07 0.1320075857)
(1.757670116e-05 4.291851077e-07 0.1414166933)
(1.675186536e-05 9.190789609e-07 0.1495562886)
(1.573647685e-05 1.335474343e-06 0.156637294)
(1.460811745e-05 1.689051936e-06 0.1628385586)
(1.34246342e-05 1.989079644e-06 0.1683142371)
(1.222827175e-05 2.243459461e-06 0.1731970978)
(1.104916049e-05 2.458828727e-06 0.1775994943)
(9.908151186e-06 2.640720751e-06 0.181613758)
(8.819061329e-06 2.793753797e-06 0.1853131401)
(7.790429483e-06 2.921815093e-06 0.1887536542)
(6.826875031e-06 3.028218456e-06 0.1919766469)
(5.930147744e-06 3.11582749e-06 0.1950117)
(5.099935305e-06 3.187145773e-06 0.1978794798)
(4.334481962e-06 3.244380171e-06 0.2005942651)
(3.631059679e-06 3.289484631e-06 0.2031660184)
(2.986323913e-06 3.324191016e-06 0.205601974)
(2.396579189e-06 3.35003205e-06 0.2079077828)
(1.857974444e-06 3.36835979e-06 0.2100882898)
(1.366643842e-06 3.380361733e-06 0.2121480259)
(9.188057166e-07 3.387075686e-06 0.2140914935)
(5.108294731e-07 3.389403885e-06 0.2159233088)
(1.392782937e-07 3.388126458e-06 0.2176482556)
(-1.990663391e-07 3.383914057e-06 0.2192712902)
(-5.071940903e-07 3.377339294e-06 0.2207975353)
(-7.878666309e-07 3.368886286e-06 0.2222323013)
(-1.043630071e-06 3.358957065e-06 0.2235811959)
(-1.276843414e-06 3.347872457e-06 0.2248504251)
(-1.489735604e-06 3.335863269e-06 0.226047505)
(-1.684518337e-06 3.323042923e-06 0.2271827219)
(-1.863611262e-06 3.309350663e-06 0.228272296)
(-2.030077156e-06 3.294428255e-06 0.2293437315)
(-2.188482443e-06 3.277437117e-06 0.2304489583)
(-2.346400447e-06 3.256550484e-06 0.2316756166)
(5.430900224e-06 -6.44083907e-06 0.02650140983)
(1.093573846e-05 -4.971480546e-06 0.05439098195)
(1.482297869e-05 -3.613960411e-06 0.07697285881)
(1.723297409e-05 -2.466296756e-06 0.09553128568)
(1.850381024e-05 -1.49385524e-06 0.111093176)
(1.891432685e-05 -6.673860375e-07 0.1242838554)
(1.869197752e-05 3.511426882e-08 0.135544428)
(1.801990244e-05 6.312405819e-07 0.1452108897)
(1.704281312e-05 1.135953642e-06 0.1535532249)
(1.587252431e-05 1.562414919e-06 0.1607957502)
(1.459348279e-05 1.922233906e-06 0.1671301169)
(1.326803039e-05 2.225474534e-06 0.1727224278)
(1.194111822e-05 2.480664083e-06 0.1777157881)
(1.064428637e-05 2.694900262e-06 0.1822304332)