/*--------------------------------*- C++ -*----------------------------------*\
| =========                 |                                                 |
| \\      /  F ield         | foam-extend: Open Source CFD                    |
|  \\    /   O peration     | Version:     3.2                                |
|   \\  /    A nd           | Web:         http://www.foam-extend.org         |
|    \\/     M anipulation  | For copyright notice see file Copyright         |
\*---------------------------------------------------------------------------*/
FoamFile
{
    version     2.0;
    format      ascii;
    class       volVectorField;
    location    "0.12";
    object      U;
}
// * * * * * * * * * * * * * * * * * * * * * * * * * * * * * * * * * * * * * //

dimensions      [0 1 -1 0 0 0 0];

internalField   nonuniform List<vector> 
18000
(
(0.4779885914 -0.2039052028 2.738248523e-06)
(0.9139122648 -0.1789324338 4.825092253e-06)
(1.33717726 -0.1683820029 6.22067899e-06)
(1.731396209 -0.1623423408 7.28970003e-06)
(2.095541841 -0.1589420754 8.154734186e-06)
(2.433841429 -0.1568431896 8.873407457e-06)
(2.749261304 -0.1557489708 9.47944838e-06)
(3.044245547 -0.1554127203 9.995233016e-06)
(3.320891717 -0.155663793 1.043690456e-05)
(3.580983737 -0.1563779412 1.081678608e-05)
(3.826034312 -0.1574583291 1.114464573e-05)
(4.057327443 -0.1588256282 1.142842157e-05)
(4.275954089 -0.1604127758 1.167467199e-05)
(4.482843099 -0.1621620016 1.188887561e-05)
(4.67878923 -0.1640230378 1.207564313e-05)
(4.864478364 -0.1659519877 1.22388738e-05)
(5.040509559 -0.1679105318 1.238187576e-05)
(5.207413606 -0.1698653058 1.250746148e-05)
(5.365668099 -0.1717873627 1.26180253e-05)
(5.515709216 -0.1736516901 1.271560764e-05)
(5.657940655 -0.1754367734 1.280194891e-05)
(5.792740177 -0.1771241994 1.287853503e-05)
(5.920464244 -0.178698307 1.294663617e-05)
(6.041451209 -0.1801458879 1.300733966e-05)
(6.156023449 -0.1814559251 1.306157802e-05)
(6.264488793 -0.1826193534 1.311015283e-05)
(6.367141413 -0.1836288329 1.315375497e-05)
(6.464262371 -0.1844785287 1.319298179e-05)
(6.556119889 -0.1851638928 1.322835171e-05)
(6.642969448 -0.1856814509 1.326031654e-05)
(6.725053798 -0.1860286204 1.328927199e-05)
(6.802602936 -0.1862036541 1.331556657e-05)
(6.875834234 -0.1862059495 1.333950864e-05)
(6.944953122 -0.1860372823 1.336137164e-05)
(7.010155128 -0.1857051026 1.338139631e-05)
(7.071630683 -0.1852299997 1.339978816e-05)
(7.129575065 -0.1846609543 1.341670713e-05)
(7.18421312 -0.1841043006 1.343224322e-05)
(7.23590312 -0.1837971474 1.344634139e-05)
(7.280184848 -0.1845299284 1.345854901e-05)
(0.4536788482 -0.2675846908 2.424172672e-06)
(0.9338070917 -0.2268369881 4.034113383e-06)
(1.406721475 -0.2114192431 5.113548234e-06)
(1.850028396 -0.2030220088 5.924293942e-06)
(2.261025507 -0.1977495859 6.550442285e-06)
(2.643503602 -0.1934567556 7.035763364e-06)
(3.000068417 -0.1898907917 7.408507988e-06)
(3.333079069 -0.1868165302 7.689318309e-06)
(3.64464763 -0.1841104147 7.894262012e-06)
(3.936641262 -0.1816979686 8.036320714e-06)
(4.210698691 -0.1795275 8.126223511e-06)
(4.468255496 -0.1775584439 8.172961836e-06)
(4.710568724 -0.1757568369 8.184134354e-06)
(4.938740446 -0.174093732 8.166192381e-06)
(5.153740533 -0.1725447541 8.124623715e-06)
(5.356428042 -0.171090048 8.064096465e-06)
(5.547570487 -0.1697142069 7.988575742e-06)
(5.727860448 -0.1684060266 7.90142107e-06)
(5.897929362 -0.1671580656 7.805469428e-06)
(6.058358535 -0.1659660627 7.703106999e-06)
(6.209687706 -0.1648282846 7.596331598e-06)
(6.352421495 -0.1637448691 7.486807182e-06)
(6.487034155 -0.1627172215 7.375911459e-06)
(6.613973041 -0.1617474944 7.264777405e-06)
(6.733661112 -0.1608381427 7.154329398e-06)
(6.846498785 -0.1599915369 7.045314548e-06)
(6.952865292 -0.1592096225 6.938329819e-06)
(7.053119715 -0.1584936131 6.833845433e-06)
(7.14760179 -0.1578436933 6.73222506e-06)
(7.236632515 -0.1572586908 6.633743244e-06)
(7.320514565 -0.1567356612 6.538600409e-06)
(7.399532275 -0.1562692841 6.446935895e-06)
(7.473950768 -0.1558508625 6.358839444e-06)
(7.544013213 -0.1554665403 6.274361653e-06)
(7.609934199 -0.1550940712 6.193524035e-06)
(7.671885625 -0.1546969678 6.116329583e-06)
(7.729969981 -0.1542145801 6.042774077e-06)
(7.78417117 -0.1535442399 5.972851642e-06)
(7.834444827 -0.1525349943 5.90645773e-06)
(7.875981344 -0.1507898199 5.841974587e-06)
(0.4328864271 -0.534969218 2.678155528e-06)
(0.9220542853 -0.4781159255 3.970379591e-06)
(1.40516166 -0.4537096676 4.731531246e-06)
(1.856843572 -0.4401101781 5.256596958e-06)
(2.275102059 -0.4313992012 5.630710944e-06)
(2.664257634 -0.4249338538 5.893934147e-06)
(3.027142393 -0.4201542882 6.071074768e-06)
(3.366296145 -0.4166196778 6.17965446e-06)
(3.683920225 -0.4140729702 6.233017545e-06)
(3.981931889 -0.4123332326 6.241772196e-06)
(4.261996233 -0.4112614248 6.214564181e-06)
(4.525560825 -0.4107425046 6.158541358e-06)
(4.773885573 -0.410677438 6.0796598e-06)
(5.008069426 -0.4109797304 5.982901128e-06)
(5.229075087 -0.4115739604 5.872436024e-06)
(5.437751658 -0.4123951207 5.751752746e-06)
(5.634854787 -0.4133880922 5.623761489e-06)
(5.821063942 -0.4145069585 5.490881131e-06)
(5.996996735 -0.4157141043 5.355112503e-06)
(6.163220379 -0.4169791421 5.218100893e-06)
(6.320260613 -0.4182777702 5.081189612e-06)
(6.468608457 -0.419590656 4.94546604e-06)
(6.608725215 -0.4209024087 4.81180119e-06)
(6.741046142 -0.4222006717 4.68088368e-06)
(6.865983131 -0.423475328 4.553248843e-06)
(6.983926692 -0.424717801 4.429303603e-06)
(7.095247438 -0.4259204423 4.309347704e-06)
(7.200297242 -0.4270759885 4.193591781e-06)
(7.299410214 -0.4281770584 4.082172729e-06)
(7.392903595 -0.429215656 3.975166759e-06)
(7.481078759 -0.4301826534 3.872600432e-06)
(7.564222562 -0.4310672254 3.774459984e-06)
(7.642609657 -0.4318561855 3.680699147e-06)
(7.716506882 -0.4325331161 3.591245622e-06)
(7.786181812 -0.4330771446 3.506006202e-06)
(7.851918521 -0.4334606818 3.424870286e-06)
(7.914048334 -0.4336462051 3.347709891e-06)
(7.972974941 -0.4335720905 3.274365859e-06)
(8.029629283 -0.4331789667 3.204542732e-06)
(8.078919932 -0.4320812025 3.136913197e-06)
(0.4073743616 -0.7284649574 3.124888972e-06)
(0.8916810791 -0.6601923911 4.335054549e-06)
(1.374215708 -0.6287579407 4.970930202e-06)
(1.825176594 -0.6107295488 5.37776094e-06)
(2.24267569 -0.5986209914 5.645668062e-06)
(2.631090569 -0.5893879421 5.814142235e-06)
(2.993260806 -0.5822357701 5.906885553e-06)
(3.331779158 -0.5766018699 5.940355477e-06)
(3.648859383 -0.572164103 5.92701076e-06)
(3.946423539 -0.5686950843 5.876719719e-06)
(4.226136051 -0.5660208635 5.797488291e-06)
(4.489441453 -0.5639974785 5.695889429e-06)
(4.737595399 -0.5625006606 5.57734634e-06)
(4.971691931 -0.5614215809 5.446337246e-06)
(5.192688481 -0.5606653274 5.306553171e-06)
(5.401428692 -0.5601504222 5.161024712e-06)
(5.598662731 -0.5598084322 5.012226643e-06)
(5.785064736 -0.559583268 4.862165691e-06)
(5.961247284 -0.5594301037 4.712454945e-06)
(6.127772985 -0.5593140058 4.56437726e-06)
(6.285163497 -0.5592084255 4.418939369e-06)
(6.433906349 -0.5590937013 4.276918059e-06)
(6.574459994 -0.5589556656 4.138899498e-06)
(6.707257513 -0.5587844016 4.005312622e-06)
(6.832709332 -0.5585731584 3.876457384e-06)
(6.951205245 -0.5583174171 3.752528539e-06)
(7.063115935 -0.5580141029 3.633635631e-06)
(7.168794203 -0.5576609245 3.519819687e-06)
(7.268576013 -0.5572558117 3.411067141e-06)
(7.362781423 -0.5567964253 3.307321406e-06)
(7.451715418 -0.5562797242 3.208492417e-06)
(7.535668529 -0.5557015939 3.114464507e-06)
(7.614916977 -0.555056596 3.025102828e-06)
(7.689721604 -0.5543379882 2.940258483e-06)
(7.760324752 -0.5535386376 2.859772295e-06)
(7.826941657 -0.5526530543 2.783476549e-06)
(7.889756535 -0.55168642 2.711191258e-06)
(7.948829362 -0.5506509434 2.642703374e-06)
(8.004705666 -0.5496765752 2.577669216e-06)
(8.051611055 -0.5486268274 2.514993752e-06)
(0.3861752221 -0.9355345318 3.590376984e-06)
(0.8617589603 -0.8611187224 4.795448095e-06)
(1.340324992 -0.8245486982 5.372666624e-06)
(1.788009216 -0.8029040671 5.715671334e-06)
(2.202715642 -0.7880006409 5.920418987e-06)
(2.588633053 -0.7766740858 6.027369901e-06)
(2.948509588 -0.7679444548 6.060479264e-06)
(3.284930165 -0.7611494591 6.036376258e-06)
(3.600086959 -0.7559027012 5.967721059e-06)
(3.895887171 -0.751926196 5.864592358e-06)
(4.173981908 -0.7490048563 5.735185413e-06)
(4.435804145 -0.7469590699 5.58621954e-06)
(4.682598952 -0.7456326995 5.423211472e-06)
(4.91545024 -0.7448881891 5.2506789e-06)
(5.13530543 -0.7446049881 5.072302456e-06)
(5.342998147 -0.7446791914 4.891059571e-06)
(5.539268573 -0.745023213 4.709337289e-06)
(5.724781036 -0.7455649894 4.529028205e-06)
(5.900138648 -0.7462466501 4.351612367e-06)
(6.065895051 -0.7470227861 4.178227201e-06)
(6.222563535 -0.7478585301 4.009727076e-06)
(6.370623918 -0.7487276413 3.846733904e-06)
(6.510527621 -0.7496107215 3.689679918e-06)
(6.642701362 -0.7504936253 3.53884369e-06)
(6.76754984 -0.7513660863 3.394380295e-06)
(6.885457715 -0.7522205615 3.256346428e-06)
(6.99679108 -0.7530512893 3.124721247e-06)
(7.101898655 -0.7538535438 2.999423566e-06)
(7.201112819 -0.754623067 2.880325961e-06)
(7.294750592 -0.755355669 2.767266308e-06)
(7.383114741 -0.7560470092 2.660057098e-06)
(7.466495167 -0.7566925636 2.558492931e-06)
(7.545170939 -0.7572877931 2.462356381e-06)
(7.619413147 -0.7578283621 2.371422297e-06)
(7.689490219 -0.7583105436 2.285460233e-06)
(7.755670089 -0.7587294148 2.204233985e-06)
(7.818255528 -0.7590820431 2.127493989e-06)
(7.877425708 -0.7593352356 2.05495369e-06)
(7.934355794 -0.7595311018 1.986212861e-06)
(7.982949812 -0.7592886323 1.920331798e-06)
(0.3694504736 -1.134187087 4.037272048e-06)
(0.8353705456 -1.056178322 5.2608327e-06)
(1.308448797 -1.015454173 5.804234151e-06)
(1.751747912 -0.9904613446 6.104180284e-06)
(2.162844547 -0.9728013134 6.262224902e-06)
(2.545615694 -0.9592838782 6.320267517e-06)
(2.902665065 -0.9487784119 6.303048722e-06)
(3.236532721 -0.9405438989 6.227894678e-06)
(3.549369708 -0.9341376312 6.108146981e-06)
(3.84305728 -0.9292360993 5.954519746e-06)
(4.119226481 -0.9255858471 5.77576486e-06)
(4.379294659 -0.9229728765 5.579059162e-06)
(4.62449372 -0.9212093392 5.370271557e-06)
(4.855895642 -0.9201282962 5.154170635e-06)
(5.074436418 -0.919582368 4.934597087e-06)
(5.280938444 -0.9194437581 4.714611102e-06)
(5.476130878 -0.9196042093 4.496619508e-06)
(5.660667419 -0.9199742878 4.282485434e-06)
(5.835141197 -0.9204819293 4.073622484e-06)
(6.000096732 -0.9210704353 3.871075182e-06)
(6.156039235 -0.9216961989 3.675587206e-06)
(6.303441587 -0.9223264075 3.487658919e-06)
(6.442749461 -0.9229368918 3.307595559e-06)
(6.574385029 -0.9235102079 3.135547331e-06)
(6.698749624 -0.9240339931 2.971542567e-06)
(6.816225673 -0.9244996066 2.815514974e-06)
(6.927178126 -0.9249010518 2.667325912e-06)
(7.031955575 -0.9252341554 2.526782499e-06)
(7.130891171 -0.9254959778 2.39365222e-06)
(7.224303352 -0.9256844314 2.267674682e-06)
(7.312496414 -0.9257981074 2.148570919e-06)
(7.395760754 -0.9258363054 2.036050734e-06)
(7.474372684 -0.925799334 1.929818268e-06)
(7.548592882 -0.9256890173 1.829575884e-06)
(7.618665912 -0.9255102564 1.735025933e-06)
(7.684806966 -0.925271061 1.645869335e-06)
(7.747247198 -0.9249930948 1.561797167e-06)
(7.805961721 -0.9246834622 1.482470253e-06)
(7.862111742 -0.9244594474 1.407465317e-06)
(7.909403825 -0.9241588135 1.335886944e-06)
(0.3560982537 -1.332375248 4.460346991e-06)
(0.8123271511 -1.253038258 5.707931393e-06)
(1.27911298 -1.20930795 6.227537801e-06)
(1.717413827 -1.181512794 6.493097507e-06)
(2.124440825 -1.161450933 6.611148088e-06)
(2.503702703 -1.146014577 6.625128127e-06)
(2.857632404 -1.133974029 6.560828921e-06)
(3.18870142 -1.124535942 6.436582072e-06)
(3.499007067 -1.117213196 6.266711227e-06)
(3.790396822 -1.111644583 6.062836575e-06)
(4.064476504 -1.107543412 5.834496012e-06)
(4.322644309 -1.104664965 5.589507974e-06)
(4.56611624 -1.102792384 5.334233344e-06)
(4.795949862 -1.101731411 5.07379173e-06)
(5.013067199 -1.101309534 4.812250828e-06)
(5.218276693 -1.101376605 4.552794452e-06)
(5.412293575 -1.101805234 4.297870764e-06)
(5.595757898 -1.102490257 4.049321493e-06)
(5.769249744 -1.103347197 3.808493139e-06)
(5.933301479 -1.104309994 3.576331514e-06)
(6.08840724 -1.105328353 3.353461236e-06)
(6.235030015 -1.106365023 3.140251944e-06)
(6.373606772 -1.107393235 2.936872971e-06)
(6.50455211 -1.108394403 2.743338127e-06)
(6.628260802 -1.109356171 2.559542145e-06)
(6.74510958 -1.110270795 2.385290101e-06)
(6.855458387 -1.111133884 2.220321087e-06)
(6.959651317 -1.111943452 2.064327072e-06)
(7.058017357 -1.112699239 1.916967874e-06)
(7.15087102 -1.113402279 1.777882945e-06)
(7.23851302 -1.114054661 1.64670052e-06)
(7.321231009 -1.114659425 1.523044631e-06)
(7.399300736 -1.115220532 1.406540236e-06)
(7.472986633 -1.115742558 1.296816542e-06)
(7.542546917 -1.116230671 1.193508176e-06)
(7.608219636 -1.116687345 1.096253348e-06)
(7.670301309 -1.117118121 1.004686237e-06)
(7.728777319 -1.117497903 9.184212311e-07)
(7.785116167 -1.117867784 8.370174103e-07)
(7.832844652 -1.118015452 7.596126065e-07)
(0.3452111734 -1.52886906 4.861761653e-06)
(0.7920448695 -1.449613342 6.132405506e-06)
(1.252090317 -1.403662152 6.632432172e-06)
(1.685016774 -1.373429738 6.867534478e-06)
(2.08767672 -1.351171098 6.948487665e-06)
(2.46319329 -1.333926681 6.920226882e-06)
(2.813816927 -1.320409306 6.809760003e-06)
(3.141935068 -1.309793424 6.636655287e-06)
(3.449583348 -1.301556484 6.41645565e-06)
(3.738570328 -1.295304961 6.161901297e-06)
(4.010473427 -1.290721788 5.883490666e-06)
(4.26666972 -1.287532789 5.58981232e-06)
(4.508357911 -1.285492108 5.287802453e-06)
(4.736579879 -1.284377225 4.982975708e-06)
(4.952242293 -1.283988874 4.679639938e-06)
(5.156138102 -1.284152527 4.38109385e-06)
(5.348967014 -1.284719453 4.089804492e-06)
(5.531353928 -1.28556651 3.80756264e-06)
(5.703864618 -1.286594619 3.535615905e-06)
(5.867018397 -1.287726261 3.274780658e-06)
(6.021297884 -1.288902445 3.025534721e-06)
(6.167156222 -1.290079554 2.788093207e-06)
(6.305022241 -1.291226334 2.562469924e-06)
(6.435304042 -1.292321206 2.348526658e-06)
(6.558391419 -1.293349955 2.146012462e-06)
(6.674657484 -1.29430386 1.954594734e-06)
(6.784459745 -1.295178218 1.773883715e-06)
(6.888140848 -1.295971244 1.60345162e-06)
(6.986029085 -1.296683275 1.442847511e-06)
(7.078438708 -1.297316246 1.291608777e-06)
(7.165670134 -1.297873394 1.149269844e-06)
(7.248009868 -1.298359125 1.015368693e-06)
(7.325730425 -1.29877909 8.894514814e-07)
(7.399088579 -1.299140253 7.710753919e-07)
(7.468329285 -1.299451713 6.598094786e-07)
(7.533662816 -1.29972327 5.552328998e-07)
(7.59536222 -1.299972514 4.569287096e-07)
(7.653321154 -1.300201547 3.644717822e-07)
(7.709042075 -1.300466616 2.774047666e-07)
(7.756047262 -1.300683881 1.948643409e-07)
(0.3361110532 -1.725013117 5.244974705e-06)
(0.7739426804 -1.646865665 6.535237215e-06)
(1.227003678 -1.599379519 7.017297538e-06)
(1.65431035 -1.567094356 7.223750623e-06)
(2.052386316 -1.542891422 7.268818233e-06)
(2.423976421 -1.524010818 7.198828294e-06)
(2.771146549 -1.50914803 7.042130801e-06)
(3.096190374 -1.497464925 6.819732649e-06)
(3.401076805 -1.488413645 6.548609238e-06)
(3.687571781 -1.481574901 6.242810766e-06)
(3.957221974 -1.476605468 5.913942977e-06)
(4.21138177 -1.473204417 5.571459972e-06)
(4.451231237 -1.471098403 5.222919103e-06)
(4.677795049 -1.470037256 4.874234809e-06)
(4.891962623 -1.469795026 4.529930282e-06)
(5.094509154 -1.470172674 4.193376334e-06)
(5.286116347 -1.471000063 3.867007965e-06)
(5.467391445 -1.472136272 3.552513272e-06)
(5.638883553 -1.473468175 3.250993231e-06)
(5.801096822 -1.474907745 2.963093623e-06)
(5.954500533 -1.476388627 2.6891119e-06)
(6.099536451 -1.477862507 2.429082528e-06)
(6.236623945 -1.479295617 2.182844365e-06)
(6.366163413 -1.480665583 1.950093389e-06)
(6.488538466 -1.481958745 1.730423695e-06)
(6.604117269 -1.48316796 1.52335918e-06)
(6.713253317 -1.484290883 1.328377941e-06)
(6.816285886 -1.48532867 1.144930934e-06)
(6.91354028 -1.486285012 9.724561678e-07)
(7.005327975 -1.487165454 8.103894409e-07)
(7.09194683 -1.487976909 6.581723011e-07)
(7.173681243 -1.488727271 5.152578581e-07)
(7.250802827 -1.489425074 3.811147745e-07)
(7.323569491 -1.490078914 2.552296277e-07)
(7.392232235 -1.490697167 1.371075365e-07)
(7.457009312 -1.491285603 2.627067427e-08)
(7.518201687 -1.491850766 -7.774640874e-08)
(7.575696519 -1.492382352 -1.754059853e-07)
(7.63110094 -1.492894734 -2.671828125e-07)
(7.677937883 -1.493305476 -3.539356393e-07)
(0.3283182996 -1.92110842 5.613289767e-06)
(0.7575579549 -1.844739669 6.918892098e-06)
(1.203518962 -1.79624555 7.383364353e-06)
(1.625043731 -1.762232421 7.561964881e-06)
(2.018369842 -1.736301446 7.57156563e-06)
(2.385886579 -1.715926623 7.459760136e-06)
(2.729479585 -1.699820225 7.256352773e-06)
(3.051343422 -1.68714802 6.983982842e-06)
(3.353377453 -1.677345864 6.661264367e-06)
(3.637302543 -1.6699744 6.303737137e-06)
(3.904633135 -1.664667756 5.924243487e-06)
(4.156699948 -1.661100136 5.533172852e-06)
(4.394663456 -1.658971169 5.138717957e-06)
(4.619529797 -1.658002369 4.747164062e-06)
(4.8321693 -1.657939694 4.363193141e-06)
(5.033337181 -1.658557846 3.990178681e-06)
(5.223694783 -1.659663522 3.630452879e-06)
(5.403829468 -1.661096458 3.285536745e-06)
(5.574271814 -1.662728209 2.956330696e-06)
(5.735509461 -1.664459255 2.643267865e-06)
(5.88799758 -1.666215138 2.346434687e-06)
(6.032166349 -1.667942264 2.065664244e-06)
(6.168425994 -1.669603828 1.800607681e-06)
(6.297169988 -1.671176123 1.550788402e-06)
(6.418776932 -1.672645388 1.315643024e-06)
(6.533611561 -1.674005225 1.094552191e-06)
(6.642025195 -1.67525457 8.868637614e-07)
(6.744355871 -1.676396136 6.919101707e-07)
(6.840928306 -1.677435252 5.090213946e-07)
(6.932053758 -1.678379014 3.375346007e-07)
(7.018029929 -1.679235693 1.768011697e-07)
(7.099140695 -1.68001431 2.619173896e-08)
(7.175656284 -1.680724374 -1.149004086e-07)
(7.2478314 -1.681375598 -2.470573805e-07)
(7.31591208 -1.681977997 -3.708361423e-07)
(7.380106011 -1.682540764 -4.867696299e-07)
(7.440707972 -1.683074645 -5.953700232e-07)
(7.497574649 -1.683582134 -6.971356736e-07)
(7.552321145 -1.684075981 -7.925603829e-07)
(7.598555658 -1.684524516 -8.825011531e-07)
(0.321484754 -2.117618142 5.969516696e-06)
(0.7425224917 -2.043467067 7.286035577e-06)
(1.181350126 -1.994391997 7.732692535e-06)
(1.596985936 -1.958949799 7.8837298e-06)
(1.9854299 -1.931502273 7.857886699e-06)
(2.348747435 -1.909780139 7.703890907e-06)
(2.688652476 -1.892541763 7.45311331e-06)
(3.007238417 -1.878971355 7.130021049e-06)
(3.306333872 -1.868497245 6.755073796e-06)
(3.587613061 -1.860665749 6.345476129e-06)
(3.852557264 -1.855092131 5.915422242e-06)
(4.102472834 -1.851427869 5.476282482e-06)
(4.338499699 -1.849346162 5.036868144e-06)
(4.561623888 -1.848539587 4.603773957e-06)
(4.77269439 -1.848724655 4.181755522e-06)
(4.972443726 -1.849648242 3.774098172e-06)
(5.16151004 -1.851092514 3.382947712e-06)
(5.340458203 -1.85287695 3.009589023e-06)
(5.50979813 -1.854857434 2.654670135e-06)
(5.669999407 -1.85692316 2.318376349e-06)
(5.821502165 -1.858992248 2.000562117e-06)
(5.964724604 -1.861006895 1.700849213e-06)
(6.100067832 -1.862928606 1.418698971e-06)
(6.227918702 -1.864733879 1.153465142e-06)
(6.348651234 -1.866410508 9.044325446e-07)
(6.462627165 -1.867954569 6.708453699e-07)
(6.57019595 -1.869368048 4.519280426e-07)
(6.67169451 -1.870657011 2.469006072e-07)
(6.767446866 -1.871830237 5.499012313e-08)
(6.8577638 -1.872898198 -1.245608916e-07)
(6.942942668 -1.873872315 -2.924883384e-07)
(7.023267182 -1.874764369 -4.495021409e-07)
(7.099007886 -1.875586011 -5.962832794e-07)
(7.170420555 -1.87634823 -7.334820298e-07)
(7.237754127 -1.877060952 -8.617173221e-07)
(7.301219559 -1.87773188 -9.815773049e-07)
(7.361121315 -1.878366908 -1.093621154e-06)
(7.41731593 -1.87896494 -1.198383789e-06)
(7.471434743 -1.879521015 -1.296379294e-06)
(7.517182049 -1.880007497 -1.388456182e-06)
(0.3153568367 -2.31482435 6.315940409e-06)
(0.7285488302 -2.243153068 7.639101689e-06)
(1.160262512 -2.193832805 8.067422654e-06)
(1.569940221 -2.157225125 8.190924617e-06)
(1.953394052 -2.128455266 8.129453901e-06)
(2.312401764 -2.105523953 7.932747129e-06)
(2.648516808 -2.087259666 7.633860753e-06)
(2.963731902 -2.072877342 7.259291906e-06)
(3.259804967 -2.061805798 6.831557937e-06)
(3.538362775 -2.053582388 6.369701555e-06)
(3.800853002 -2.047807107 5.889370226e-06)
(4.048557186 -2.044110522 5.402934895e-06)
(4.282593765 -2.042139453 4.919775831e-06)
(4.503926866 -2.041556156 4.446703409e-06)
(4.713381539 -2.042045508 3.988435674e-06)
(4.911664569 -2.043324194 3.548062843e-06)
(5.099387883 -2.04514781 3.127455123e-06)
(5.277091287 -2.04731413 2.727595697e-06)
(5.445262165 -2.049662594 2.348838398e-06)
(5.604351007 -2.052070944 1.991099289e-06)
(5.754782654 -2.054450189 1.653994977e-06)
(5.896963768 -2.056738924 1.336940552e-06)
(6.031287313 -2.05889772 1.039218228e-06)
(6.158134871 -2.060904032 7.600253992e-07)
(6.277877482 -2.062747861 4.985085656e-07)
(6.390875632 -2.064428214 2.537875939e-07)
(6.497478746 -2.065950327 2.497344174e-08)
(6.598024512 -2.067323532 -1.888187161e-07)
(6.692838184 -2.068559659 -3.884596049e-07)
(6.782231977 -2.069671873 -5.747983509e-07)
(6.866504666 -2.070673838 -7.486568929e-07)
(6.945941162 -2.071579118 -9.108258351e-07)
(7.020812803 -2.072400751 -1.062061528e-06)
(7.091375443 -2.073150892 -1.203084173e-06)
(7.157877454 -2.07384058 -1.334576807e-06)
(7.220527553 -2.074479181 -1.457185126e-06)
(7.279628667 -2.075074011 -1.571517753e-06)
(7.335033179 -2.075628763 -1.678148673e-06)
(7.388356544 -2.076135763 -1.777614998e-06)
(7.433433243 -2.076581711 -1.870754856e-06)
(0.3097470492 -2.512964059 6.654376885e-06)
(0.715410185 -2.443909657 7.980161887e-06)
(1.140061693 -2.394609699 8.389489177e-06)
(1.54373811 -2.357071295 8.485344204e-06)
(1.922111669 -2.327160376 8.387945924e-06)
(2.276710011 -2.303153713 8.147927251e-06)
(2.608938901 -2.283969056 7.800159909e-06)
(2.920692785 -2.268862425 7.373382538e-06)
(3.21365992 -2.257270475 6.892389406e-06)
(3.48941943 -2.248726753 6.378233474e-06)
(3.749385319 -2.242819542 5.848101148e-06)
(3.994814005 -2.239160153 5.315354166e-06)
(4.226801346 -2.23736865 4.789856391e-06)
(4.446287398 -2.237075005 4.278507176e-06)
(4.654070204 -2.237929696 3.785852928e-06)
(4.850827351 -2.239616464 3.314671863e-06)
(5.037141301 -2.241862164 2.866471844e-06)
(5.213524221 -2.244441592 2.441880706e-06)
(5.380439332 -2.247177392 2.040933876e-06)
(5.538317383 -2.249936312 1.663276476e-06)
(5.687568166 -2.252623311 1.308300354e-06)
(5.828587731 -2.255174833 9.752349076e-07)
(5.961762297 -2.257552158 6.632067561e-07)
(6.087469823 -2.259735398 3.712793124e-07)
(6.206080088 -2.261718404 9.847978532e-08)
(6.317953976 -2.26350465 -1.561816114e-07)
(6.423442364 -2.265104027 -3.936972549e-07)
(6.522884966 -2.266530412 -6.150508972e-07)
(6.616609279 -2.267799868 -8.212086689e-07)
(6.704929741 -2.268929358 -1.013111778e-06)
(6.78814721 -2.269935841 -1.191670717e-06)
(6.866548506 -2.270835627 -1.357760697e-06)
(6.940406789 -2.271643906 -1.512218202e-06)
(7.009979742 -2.272374358 -1.65583851e-06)
(7.075517849 -2.273038787 -1.789373964e-06)
(7.137232072 -2.273646675 -1.913532822e-06)
(7.19542787 -2.274204013 -2.028977856e-06)
(7.249963173 -2.274713785 -2.136326355e-06)
(7.30243508 -2.27516186 -2.23614225e-06)
(7.34681728 -2.27553372 -2.329250987e-06)
(0.3045157668 -2.712209206 6.986250571e-06)
(0.7029269858 -2.645818525 8.31091662e-06)
(1.120586225 -2.596746439 8.700534527e-06)
(1.518235662 -2.558484147 8.768552833e-06)
(1.891452189 -2.527599166 8.634855599e-06)
(2.241550044 -2.502644695 8.350875572e-06)
(2.569800863 -2.482642379 7.953442271e-06)
(2.878004631 -2.46689784 7.473758108e-06)
(3.167781704 -2.454862166 6.93912187e-06)
(3.440663867 -2.446069965 6.372767174e-06)
(3.698031696 -2.440101228 5.793485828e-06)
(3.941116254 -2.436549303 5.21558617e-06)
(4.170989514 -2.435006453 4.649290967e-06)
(4.388564865 -2.435067547 4.101429214e-06)
(4.5946098 -2.436345087 3.576223122e-06)
(4.789768925 -2.438486529 3.076019773e-06)
(4.974591927 -2.441187567 2.601889514e-06)
(5.149561014 -2.444198777 2.154071841e-06)
(5.31511413 -2.447325924 1.732284166e-06)
(5.471662339 -2.450425603 1.335923188e-06)
(5.619601413 -2.453398191 9.641900127e-07)
(5.759318529 -2.456179784 6.161654107e-07)
(5.891195314 -2.458734263 2.908547484e-07)
(6.015608441 -2.461046194 -1.278426864e-08)
(6.132928768 -2.463114861 -2.958229103e-07)
(6.243519788 -2.464949511 -5.593473156e-07)
(6.347735866 -2.466565687 -8.044466275e-07)
(6.445920559 -2.467982498 -1.032202494e-06)
(6.538405219 -2.469220639 -1.243679629e-06)
(6.625507913 -2.470301026 -1.43991745e-06)
(6.707532754 -2.471243877 -1.621922965e-06)
(6.784769353 -2.472068108 -1.790664881e-06)
(6.857493139 -2.472790943 -1.947068939e-06)
(6.925963503 -2.473427656 -2.092014358e-06)
(6.990432027 -2.473991305 -2.226331072e-06)
(7.051110375 -2.474492546 -2.35079744e-06)
(7.108303008 -2.474938098 -2.466137136e-06)
(7.161873112 -2.475332514 -2.573016707e-06)
(7.213388628 -2.475659876 -2.672032131e-06)
(7.25697613 -2.475905396 -2.76399627e-06)
(0.2995582563 -2.912688259 7.312672733e-06)
(0.6909559365 -2.848944924 8.63273782e-06)
(1.101700792 -2.80026185 9.001912602e-06)
(1.493308793 -2.76145731 9.041858483e-06)
(1.861301451 -2.729751822 8.871443096e-06)
(2.206814089 -2.703971073 8.542821126e-06)
(2.530997903 -2.683251184 8.094936277e-06)
(2.835563218 -2.66695426 7.561688474e-06)
(3.122064788 -2.654551655 6.973117648e-06)
(3.391987779 -2.645583643 6.354805343e-06)
(3.646679815 -2.639625194 5.727191351e-06)
(3.887346358 -2.636252549 5.105446135e-06)
(4.115033897 -2.635028328 4.499983911e-06)
(4.330626059 -2.635508528 3.917372657e-06)
(4.534855769 -2.637263289 3.361345612e-06)
(4.72833062 -2.639900001 2.833706738e-06)
(4.91156431 -2.643080747 2.335035336e-06)
(5.085007192 -2.646531003 1.865178864e-06)
(5.249071499 -2.650040192 1.423567565e-06)
(5.404149483 -2.653456349 1.009399117e-06)
(5.550624755 -2.656677515 6.217385162e-07)
(5.688878096 -2.659641961 2.595684427e-07)
(5.819289295 -2.662318698 -7.818595994e-08)
(5.942236498 -2.664699085 -3.92643381e-07)
(6.058094208 -2.666789893 -6.849559599e-07)
(6.167230793 -2.668607859 -9.562989159e-07)
(6.270005995 -2.670175574 -1.207859203e-06)
(6.366768733 -2.671518487 -1.440823541e-06)
(6.457855367 -2.672662812 -1.656366491e-06)
(6.543588424 -2.673634125 -1.855639272e-06)
(6.624275842 -2.674456484 -2.039759939e-06)
(6.700210422 -2.675151891 -2.209805124e-06)
(6.771670197 -2.675739967 -2.366803442e-06)
(6.838916677 -2.676237773 -2.511730402e-06)
(6.902203075 -2.676659566 -2.645504412e-06)
(6.961742747 -2.677016712 -2.768983304e-06)
(7.017839652 -2.677315849 -2.882959632e-06)
(7.070364916 -2.677561373 -2.988155938e-06)
(7.120854294 -2.677734603 -3.085205994e-06)
(7.163593432 -2.677815339 -3.174910351e-06)
(0.2947955764 -3.11449185 7.634512187e-06)
(0.6793819565 -3.053336137 8.946728835e-06)
(1.083291134 -3.005165645 9.294730427e-06)
(1.468849772 -2.965977385 9.306341301e-06)
(1.831558925 -2.933591798 9.098755564e-06)
(2.172406383 -2.907099869 8.724791859e-06)
(2.492436302 -2.885759249 8.225678934e-06)
(2.793274764 -2.868993909 7.638259829e-06)
(3.076413606 -2.856300543 6.995561612e-06)
(3.343292403 -2.847229432 6.325675813e-06)
(3.59522648 -2.841353576 5.65070314e-06)
(3.833395383 -2.838232376 4.9865449e-06)
(4.058818136 -2.837395977 4.343593654e-06)
(4.272344991 -2.838356627 3.727937548e-06)
(4.47466987 -2.840636872 3.142652341e-06)
(4.666359222 -2.84379988 2.58890516e-06)
(4.847887848 -2.847471822 2.066763112e-06)
(5.019673026 -2.851352754 1.575715167e-06)
(5.182101736 -2.855217081 1.114969824e-06)
(5.335549264 -2.858906732 6.836022808e-07)
(5.480389843 -2.862320451 2.806138036e-07)
(5.617001111 -2.86540187 -9.505198834e-08)
(5.745764363 -2.868128135 -4.445084598e-07)
(5.867062368 -2.870500037 -7.689265142e-07)
(5.981276059 -2.872534012 -1.069530447e-06)
(6.088781016 -2.874255998 -1.347588144e-06)
(6.189944229 -2.875696897 -1.604396811e-06)
(6.285121418 -2.87688938 -1.841266344e-06)
(6.374654996 -2.877865731 -2.059502218e-06)
(6.458872669 -2.878656492 -2.260389379e-06)
(6.53808663 -2.879289681 -2.4451782e-06)
(6.612593044 -2.879790378 -2.615072835e-06)
(6.682672468 -2.880180541 -2.771222106e-06)
(6.748588204 -2.880478962 -2.914712648e-06)
(6.810594448 -2.880701127 -3.046563663e-06)
(6.868905481 -2.880859249 -3.16772247e-06)
(6.923823266 -2.880960255 -3.279058556e-06)
(6.975226875 -2.881008679 -3.381356952e-06)
(7.024615284 -2.880983964 -3.475294647e-06)
(7.0664404 -2.880859706 -3.561659881e-06)
(0.2901679685 -3.317680074 7.952454521e-06)
(0.668111976 -3.259023782 9.253784526e-06)
(1.06526 -3.211459176 9.579899902e-06)
(1.444764308 -3.172024784 9.562899568e-06)
(1.802135273 -3.139086928 9.317669358e-06)
(2.138240999 -3.111992321 8.897654633e-06)
(2.454031373 -3.090124192 8.346554686e-06)
(2.751053991 -3.07297244 7.704413396e-06)
(3.030740685 -3.060063428 7.00750055e-06)
(3.29448671 -3.050961524 6.286571863e-06)
(3.54357585 -3.045240532 5.565365479e-06)
(3.779161286 -3.042442543 4.860328608e-06)
(4.002232165 -3.042061209 4.181571674e-06)
(4.21360122 -3.043558944 3.534461489e-06)
(4.413918612 -3.046404658 2.921255071e-06)
(4.603705608 -3.050112964 2.34242002e-06)
(4.783395744 -3.054272253 1.797533265e-06)
(4.95337289 -3.0585577 1.285802687e-06)
(5.114000306 -3.062731079 8.063167428e-07)
(5.265639209 -3.066631725 3.581292455e-07)
(5.408658142 -3.070163051 -5.973775719e-08)
(5.543435529 -3.073277948 -4.483193811e-07)
(5.67035794 -3.075965203 -8.08732641e-07)
(5.789816094 -3.078237983 -1.142188565e-06)
(5.902200107 -3.08012472 -1.449989606e-06)
(6.007894904 -3.081662295 -1.733515179e-06)
(6.10727627 -3.082891162 -1.99419959e-06)
(6.200707737 -3.083852037 -2.233506644e-06)
(6.288538348 -3.084583785 -2.452904212e-06)
(6.371101193 -3.085122197 -2.653840984e-06)
(6.448712655 -3.085499374 -2.837726769e-06)
(6.521672004 -3.085743491 -3.0059167e-06)
(6.590261937 -3.085878779 -3.159699315e-06)