/*--------------------------------*- C++ -*----------------------------------*\
| =========                 |                                                 |
| \\      /  F ield         | foam-extend: Open Source CFD                    |
|  \\    /   O peration     | Version:     3.2                                |
|   \\  /    A nd           | Web:         http://www.foam-extend.org         |
|    \\/     M anipulation  | For copyright notice see file Copyright         |
\*---------------------------------------------------------------------------*/
FoamFile
{
    version     2.0;
    format      ascii;
    class       volTensorField;
    location    "0.12";
    object      uGrad;
}
// * * * * * * * * * * * * * * * * * * * * * * * * * * * * * * * * * * * * * //

dimensions      [0 0 -1 0 0 0 0];

internalField   nonuniform List<tensor> 
18000
(
(107.6836646 6.152438382 0.0005157709088 914.4150855 -461.8920311 0.005068871581 -0.00172872818 0 301.7667464)
(149.0986854 5.672576265 0.0005822553411 1812.72672 -397.5881089 0.008701540837 -0.001035185397 0 196.0726512)
(146.0744169 2.857163434 0.0004343398989 2691.477603 -372.164071 0.01113360108 -0.0008226456358 0 176.8332748)
(143.3279335 1.733465677 0.0003630600754 3512.684972 -358.0257107 0.0129809461 -0.0007079989809 0 168.1587373)
(140.7656842 1.080206143 0.0003159691895 4272.708498 -349.5375639 0.01444679702 -0.0006334345654 0 162.7752181)
(138.9315917 0.6626198352 0.0002806473038 4979.420366 -343.2911433 0.01563080022 -0.0005798212259 0 159.0361909)
(137.5933096 0.3106837333 0.0002522666535 5638.291913 -338.7468463 0.01659383138 -0.0005387811939 0 156.2591227)
(136.6749805 0.01130641581 0.0002284894578 6254.036937 -335.431745 0.01737811909 -0.0005059987431 0 154.111907)
(136.1261488 -0.2519825404 0.0002080430584 6830.785691 -333.0566361 0.01801526903 -0.000479000744 0 152.41201)
(135.8953555 -0.4885367991 0.0001901691195 7372.11962 -331.4259666 0.01853010226 -0.0004562571415 0 151.0475839)
(135.9334153 -0.7031016347 0.000174378998 7881.129417 -330.3934881 0.01894271938 -0.0004367641855 0 149.9441796)
(136.194071 -0.897960824 0.0001603351154 8360.481764 -329.8411209 0.01926971936 -0.0004198317701 0 149.0490136)
(136.6335347 -1.074081521 0.0001477897936 8812.478594 -329.669362 0.01952498098 -0.0004049667342 0 148.3227252)
(137.210919 -1.231704035 0.0001365517395 9239.110637 -329.7927968 0.01972019864 -0.0003918050148 0 147.7347787)
(137.8891754 -1.370674048 0.0001264666472 9642.10732 -330.1378916 0.01986527081 -0.0003800702856 0 147.260791)
(138.6359114 -1.490630926 0.0001174055087 10022.98254 -330.6418194 0.01996859487 -0.0003695477228 -6.892635531e-15 146.8809087)
(139.4238165 -1.591099123 0.0001092573887 10383.07523 -331.2516035 0.02003729974 -0.000360066799 0 146.5787719)
(140.230667 -1.671521829 0.000101924926 10723.5839 -331.9232613 0.02007743504 -0.0003514896632 0 146.3408107)
(141.0389895 -1.731265235 9.532152596e-05 11045.59496 -332.6208434 0.0200941286 -0.0003437031008 0 146.1557351)
(141.835507 -1.769613048 8.936960072e-05 11350.10509 -333.3153901 0.0200917198 -0.0003366128458 -7.652686272e-15 146.0141451)
(142.610466 -1.785757498 8.399944726e-05 11638.03843 -333.9838656 0.02007387358 -0.0003301394705 0 145.9082166)
(143.3569138 -1.778794961 7.914848625e-05 11910.2593 -334.6081265 0.02004367854 -0.0003242153602 0 145.8314428)
(144.0700095 -1.747732447 7.476072323e-05 12167.58145 -335.1739902 0.02000373149 -0.0003187824511 0 145.7784152)
(144.7464051 -1.691495342 7.078633764e-05 12410.77456 -335.6704343 0.01995621045 -0.0003137905051 0 145.7446392)
(145.3837278 -1.608926561 6.718134108e-05 12640.56879 -336.0889036 0.01990293746 -0.000309195776 0 145.7263773)
(145.9801368 -1.498772805 6.39072617e-05 12857.65801 -336.4226992 0.01984543271 -0.0003049599616 0 145.720518)
(146.5339158 -1.359658359 6.093085857e-05 13062.70197 -336.6664223 0.01978496087 -0.0003010493679 0 145.7244645)
(147.0430779 -1.190047636 5.822389184e-05 13256.3279 -336.8154578 0.01972257089 -0.0002974342359 0 145.7360413)
(147.5049625 -0.9881972251 5.576296812e-05 13439.13148 -336.8654707 0.01965913001 -0.0002940881911 0 145.753415)
(147.9158619 -0.752126267 5.352946504e-05 13611.67762 -336.8118753 0.01959535295 -0.0002909877886 0 145.7750261)
(148.2706684 -0.4796992795 5.150942072e-05 13774.50078 -336.6492531 0.01953182686 -0.0002881121402 0 145.7995325)
(148.5626877 -0.1690841116 4.969312655e-05 13928.105 -336.3707098 0.01946903279 -0.0002854425945 0 145.8257613)
(148.7840743 0.179771836 4.807381127e-05 14072.96315 -335.9672135 0.01940736385 -0.000282962461 0 145.8526718)
(148.9278383 0.5612463316 4.664408267e-05 14209.51496 -335.4270895 0.01934714052 -0.0002806567578 0 145.8793362)
(148.993251 0.9549734484 4.538758958e-05 14338.16261 -334.7361587 0.01928862262 -0.0002785119526 0 145.9049526)
(148.9979165 1.30657508 4.426126431e-05 14459.26183 -333.8794734 0.01923201705 -0.0002765156524 -7.67129257e-15 145.9289169)
(149.0100551 1.489424883 4.315924613e-05 14573.10584 -332.8468346 0.01917747846 -0.0002746561741 0 145.950999)
(149.2979144 1.201656411 4.180342244e-05 14679.90221 -331.6442243 0.01912509049 -0.0002729218746 0 145.9718143)
(142.7325989 -0.6831529949 3.9349456e-05 14779.96354 -330.3606049 0.01907469712 -0.0002712995044 8.953950826e-15 145.9948748)
(166.1056357 -19.3066328 5.595507541e-05 14864.1984 -329.3955333 0.01902428021 -0.0002697690743 0 145.9272264)
(118.5595693 10.03884393 0.0003980897301 -43.27536626 -315.0961159 -6.393925404e-05 -0.00153044385 0 286.4193672)
(165.6071149 8.880833122 0.0004498370064 8.157956026 -284.5382684 -0.000827457737 -0.0008654871337 0 200.340929)
(163.7840743 4.086995774 0.0003326681437 65.96432579 -271.3016386 -0.001435620636 -0.0006762345627 0 186.0300594)
(161.4845225 2.525152375 0.0002690702991 121.5037305 -264.0862946 -0.001956765455 -0.000575386375 0 179.6806747)
(159.0123612 1.902958214 0.0002210994417 173.8191132 -259.0127642 -0.002427228255 -0.0005088181251 0 175.6294782)
(157.0574205 1.660651376 0.0001811886161 222.9890853 -254.826717 -0.002863960489 -0.0004597427717 0 172.7362918)
(155.4263582 1.490849145 0.0001464352128 268.8784237 -251.2798185 -0.003275536116 -0.0004210756388 0 170.514188)
(154.100197 1.377762982 0.0001154558761 311.5759326 -248.1883935 -0.003666593247 -0.0003892641015 0 168.7338171)
(153.0554635 1.294722434 8.746824168e-05 351.1802637 -245.4716231 -0.004039785445 -0.0003623064055 0 167.2707568)
(152.2619635 1.230032382 6.19830435e-05 387.8196006 -243.0769086 -0.004396722847 -0.0003389758004 0 166.0493862)
(151.6865334 1.178827519 3.866913894e-05 421.6411422 -240.9652689 -0.004738447466 -0.0003184707239 0 165.0193671)
(151.2953923 1.139297995 1.728679602e-05 452.803243 -239.1037301 -0.005065684534 -0.0003002399774 0 164.1447686)
(151.0549156 1.110719812 -2.348234371e-06 481.469683 -237.4627382 -0.005378981513 -0.0002838882465 0 163.398478)
(150.9327343 1.09253985 -2.038560367e-05 507.8054881 -236.01572 -0.005678787645 -0.0002691217599 0 162.7591488)
(150.8990028 1.083947854 -3.695287707e-05 531.9736906 -234.7394203 -0.005965500259 -0.0002557154118 0 162.2094671)
(150.9274149 1.083712171 -5.21630717e-05 554.1327982 -233.6143733 -0.006239491619 -0.0002434920516 0 161.7351254)
(150.9957879 1.090188964 -6.61191193e-05 574.434932 -232.6251723 -0.006501124141 -0.0002323089773 0 161.3241796)
(151.0862187 1.101424927 -7.891638562e-05 593.0245674 -231.7604188 -0.006750758539 -0.0002220488812 0 160.9666151)
(151.184893 1.115297202 -9.064400044e-05 610.0377978 -231.0123791 -0.006988757783 -0.0002126136206 0 160.6540296)
(151.2816584 1.129651535 -0.0001013855188 625.6020138 -230.3764231 -0.007215488546 -0.0002039198476 0 160.3793832)
(151.3694598 1.14241921 -0.0001112192156 639.8358802 -229.8503511 -0.007431321324 -0.0001958958682 0 160.1367908)
(151.4437163 1.151701359 -0.0001202182089 652.8495336 -229.4337056 -0.007636629773 -0.0001884793484 0 159.9213435)
(151.5017199 1.155818514 -0.0001284505289 664.7449356 -229.1271231 -0.007831789682 -0.000181615603 0 159.7289536)
(151.5420944 1.153346847 -0.0001359791844 675.6163325 -228.9317532 -0.008017177798 -0.0001752562961 0 159.5562193)
(151.5643399 1.14316389 -0.0001428622685 685.5507772 -228.848749 -0.008193170632 -0.0001693584367 8.981779057e-15 159.400309)
(151.5684368 1.124509649 -0.0001491530925 694.6286761 -228.8788281 -0.00836014333 -0.0001638835854 0 159.2588609)
(151.554497 1.097066228 -0.0001549003323 702.9243494 -229.0219055 -0.00851846858 -0.0001587972268 0 159.1298992)
(151.5224514 1.061070887 -0.0001601481558 710.5066303 -229.2767849 -0.008668515626 -0.0001540682482 0 159.0117615)
(151.4717231 1.017497604 -0.0001649362837 717.4395385 -229.6408871 -0.00881064939 -0.0001496685248 0 158.9030383)
(151.4008172 0.9683601568 -0.0001692999979 723.7830529 -230.1099797 -0.008945229697 -0.0001455725639 0 158.8025208)
(151.3065521 0.9172352854 -0.0001732699802 729.5940544 -230.6778527 -0.009072610684 -0.000141757213 0 158.7091544)
(151.1824145 0.8702326314 -0.000176871804 734.927627 -231.3358254 -0.009193140235 -0.0001382014125 -6.148097897e-15 158.6219918)
(151.0148606 0.8378688504 -0.0001801247838 739.8391073 -232.0717941 -0.009307159246 -0.0001348859923 1.29074858e-14 158.5401351)
(150.7750406 0.8386782362 -0.0001830396205 744.3875214 -232.8681725 -0.009415000264 -0.0001317935047 0 158.4626448)
(150.4012111 0.9061032465 -0.0001856139542 748.6415544 -233.6974636 -0.009516984568 -0.0001289081076 0 158.3883763)
(149.7645681 1.100782219 -0.0001878255477 752.6895206 -234.5127465 -0.009613416204 -0.0001262154927 0 158.3156714)
(148.6042837 1.53370823 -0.0001896323943 756.6582508 -235.229617 -0.009704571617 -0.0001237028725 0 158.241807)
(146.6635836 2.373433163 -0.0001911231393 760.7118261 -235.6842783 -0.00979068902 -0.0001213588709 0 158.1620101)
(136.4828132 4.13736924 -0.0001947300313 765.3838608 -235.5871696 -0.009871997316 -0.0001191713791 -4.374049556e-15 158.0713247)
(155.205406 10.58161332 -0.0003028187263 770.0685063 -233.7975191 -0.009949351212 -0.0001170991074 0 157.8696334)
(120.7741401 14.00671185 0.0003199676551 -43.31683338 -432.4597709 0.0006541833246 -0.001690789894 0 273.292566)
(168.9881129 12.99501225 0.0003392480605 -39.25192665 -406.6292679 0.000277192023 -0.0008518135522 -1.636373222e-13 197.8194573)
(167.0672499 6.532856008 0.0002251186602 -30.12446564 -391.60686 -0.0001403423929 -0.0006257152213 1.070005183e-13 185.8237837)
(164.4264658 4.125885541 0.0001677607883 -22.8567843 -382.5780085 -0.0005204680874 -0.0005105375088 0 180.3425864)
(161.8022604 3.006306589 0.0001263566884 -16.67974532 -376.1749192 -0.0008575808438 -0.0004373762357 0 176.7229013)
(159.8196416 2.36514393 9.264516997e-05 -11.03862958 -371.5544506 -0.001155722916 -0.0003851314323 0 174.092437)
(158.2379902 1.856564428 6.371536657e-05 -5.712042317 -368.2082735 -0.001419180024 -0.0003450602586 0 172.0529853)
(157.020015 1.44020797 3.820264196e-05 -0.4797693341 -365.8287962 -0.001651893897 -0.0003128388688 0 170.4153986)
(156.1210401 1.075764773 1.536433963e-05 4.754266176 -364.2292842 -0.001857264635 -0.0002860637481 0 169.0731689)
(155.5005441 0.7468390333 -5.254662218e-06 10.04197174 -363.2658714 -0.002038225907 -0.0002632808972 0 167.9597662)
(155.1186609 0.4458945659 -2.396128966e-05 15.40771037 -362.8234813 -0.002197343914 -0.0002435518486 0 167.0297432)
(154.9370882 0.1700131436 -4.097994222e-05 20.860034 -362.804777 -0.002336897596 -0.0002262387072 0 166.2499235)
(154.918892 -0.08179553495 -5.648595394e-05 26.39771533 -363.1247456 -0.002458936545 -0.0002108890068 0 165.5947897)
(155.029073 -0.3099682345 -7.062376086e-05 32.01325333 -363.7081874 -0.002565319262 -0.0001971700891 0 165.0439268)
(155.2355188 -0.5150904045 -8.351723387e-05 37.69497756 -364.4886946 -0.002657737707 -0.0001848297775 0 164.5805561)
(155.5098426 -0.6981965058 -9.5275735e-05 43.42840232 -365.4082396 -0.002737733418 -0.0001736717913 0 164.1906583)
(155.8278836 -0.8607970616 -0.0001059977107 49.19721179 -366.4168713 -0.002806708976 -0.0001635398253 0 163.8624201)
(156.1698284 -1.00475395 -0.0001157728251 54.98404656 -367.4722834 -0.00286593715 -0.000154306928 0 163.5858567)
(156.5200117 -1.132091297 -0.0001246832381 60.7711497 -368.5392119 -0.002916569103 -0.0001458682107 0 163.3525313)
(156.8664919 -1.244802931 -0.0001328044133 66.54090486 -369.5886945 -0.002959642324 -0.0001381357339 0 163.1553295)
(157.2004934 -1.344694577 -0.0001402056634 72.27627147 -370.597268 -0.002996088509 -0.0001310348342 0 162.9882692)
(157.5157945 -1.433269955 -0.0001469505602 77.96113245 -371.5461803 -0.00302674147 -0.0001245014321 0 162.8463345)
(157.8081419 -1.511652936 -0.0001530972904 83.58057646 -372.4206494 -0.003052344968 -0.0001184800252 0 162.7253284)
(158.0747299 -1.580522694 -0.0001586989885 89.12112983 -373.2091871 -0.003073560411 -0.0001129221574 0 162.6217449)
(158.3137673 -1.640040906 -0.0001638040778 94.57094893 -373.9029973 -0.003090974302 -0.0001077852392 0 162.5326571)
(158.5241165 -1.689767271 -0.0001684566066 99.91998355 -374.4954643 -0.003105105364 -0.0001030316175 0 162.4556207)
(158.7050076 -1.728558183 -0.0001726965761 105.1601326 -374.9817318 -0.003116411274 -9.862783722e-05 0 162.3885927)
(158.8558476 -1.754429116 -0.0001765602493 110.2854247 -375.3583707 -0.003125294991 -9.454403765e-05 0 162.3298617)
(158.9761354 -1.764353419 -0.0001800804203 115.2922474 -375.6231289 -0.003132110663 -9.075346791e-05 0 162.2779913)
(159.0655912 -1.75397849 -0.0001832866986 120.1796454 -375.7747775 -0.003137169135 -8.723207943e-05 0 162.2317734)
(159.1247117 -1.717240307 -0.0001862057791 124.9497299 -375.8130924 -0.003140743099 -8.395818842e-05 0 162.1901948)
(159.1563877 -1.645821142 -0.0001888617246 129.6082932 -375.73907 -0.00314307195 -8.091219009e-05 0 162.1524179)
(159.1698855 -1.528321706 -0.0001912763575 134.1658138 -375.5556289 -0.003144366553 -7.807631565e-05 0 162.1177882)
(159.1897087 -1.348949261 -0.0001934699544 138.6391685 -375.2692986 -0.003144814255 -7.543442228e-05 0 162.0858891)
(159.2734525 -1.084865692 -0.0001954628259 143.0552021 -374.8940994 -0.00314458482 -7.297180429e-05 0 162.0566831)
(159.5490577 -0.7020502167 -0.0001972804613 147.4564745 -374.4589195 -0.003143838745 -7.067501601e-05 0 162.0307983)
(160.2456857 -0.1364315058 -0.0001989771773 151.9236246 -374.0252027 -0.003142741436 -6.853165831e-05 0 162.0101128)
(162.3350846 0.6703297724 -0.0002007945857 156.5362162 -373.7001844 -0.003141488007 -6.652991999e-05 0 161.9982033)
(157.6045314 2.253931515 -0.0002045624706 161.8615579 -373.745891 -0.003140303985 -6.465631199e-05 -1.709395988e-14 162.0094551)
(183.1929874 5.677060797 -0.0003130771355 167.0004108 -374.4037476 -0.003138699158 -6.287766774e-05 0 161.9374237)
(119.5612057 16.82003139 0.0003000194226 -42.78926246 -366.3952607 0.0008345341624 -0.001972824445 0 257.1861292)
(168.186739 16.04877035 0.0003017757859 -55.17839967 -350.2684323 0.0007539653624 -0.0009300516811 0 191.3031261)
(166.8272979 8.51967316 0.0001816437295 -59.29784844 -339.1177656 0.0005849473641 -0.0006573742256 -2.09081144e-13 181.7313763)
(164.1419753 5.587923776 0.000125467857 -62.92876244 -331.747363 0.0004177723897 -0.0005223053419 0 177.2669882)
(161.4989044 4.232886434 8.620784125e-05 -66.15746105 -326.0745116 0.0002623346455 -0.0004385380581 0 174.204121)
(159.5082248 3.452721285 5.467835351e-05 -69.10186875 -321.6190602 0.0001189831956 -0.0003799175341 0 171.9251784)
(157.9327427 2.861514514 2.785373544e-05 -71.83775788 -317.996068 -1.307697795e-05 -0.0003357282752 0 170.1272655)
(156.73753 2.39202442 4.378913239e-06 -74.32320465 -315.0026495 -0.0001346756862 -0.0003007245956 0 168.6680104)
(155.8693445 1.992211343 -1.645116904e-05 -76.56622971 -312.5204382 -0.0002464505278 -0.0002720195956 0 167.4640549)
(155.2853803 1.641783027 -3.506241064e-05 -78.57582455 -310.4606695 -0.0003488961211 -0.000247882811 0 166.4620072)
(154.9442613 1.331446434 -5.174520972e-05 -80.36465453 -308.7538227 -0.0004424335299 -0.0002272064379 4.968425976e-14 165.6243649)
(154.8069477 1.058052382 -6.671842684e-05 -81.94598282 -307.3408841 -0.0005274625691 -0.0002092428363 0 164.9230509)
(154.8360614 0.8209840222 -8.015981615e-05 -83.33331939 -306.1696716 -0.000604391925 -0.0001934649413 -4.948741649e-14 164.3359694)
(154.9962951 0.6202578827 -9.222119006e-05 -84.54036935 -305.1935292 -0.0006736518955 -0.0001794873052 0 163.8450847)
(155.2552914 0.4555235055 -0.000103036435 -85.58106691 -304.3712266 -0.0007356958985 -0.0001670191109 0 163.4353196)
(155.5844731 0.3256389042 -0.0001127259701 -86.46952581 -303.6672336 -0.000790995672 -0.0001558350027 0 163.0939014)
(155.9595672 0.2286388777 -0.0001213993143 -87.2198486 -303.0519031 -0.0008400336298 -0.0001457563007 0 162.8099497)
(156.360754 0.1619213321 -0.0001291565995 -87.84584355 -302.5013708 -0.0008832945195 -0.000136638516 0 162.5741927)
(156.7724883 0.1225215022 -0.0001360894979 -88.36072968 -301.9971643 -0.0009212575994 -0.0001283628252 0 162.37875)
(157.1830874 0.1073857841 -0.0001422818443 -88.7768811 -301.5256011 -0.000954389899 -0.0001208300905 0 162.2169514)
(157.5841801 0.1135916966 -0.0001478101013 -89.10564361 -301.0770776 -0.0009831407882 -0.000113956579 0 162.0831771)
(157.9701052 0.1385034396 -0.0001527437544 -89.35722105 -300.645339 -0.001007937854 -0.0001076708281 0 161.9727136)
(158.337344 0.1798764246 -0.0001571456988 -89.54061313 -300.226787 -0.001029183997 -0.0001019113002 0 161.8816226)
(158.6840256 0.2359342225 -0.0001610726322 -89.66358856 -299.8198556 -0.001047255595 -9.662460602e-05 3.29452436e-14 161.8066243)
(159.0095292 0.3054345423 -0.0001645754751 -89.73268201 -299.4244815 -0.001062501569 -9.176412311e-05 1.71470867e-14 161.7449944)
(159.3141738 0.3877276628 -0.0001676997969 -89.75320271 -299.0416858 -0.001075243188 -8.728891073e-05 0 161.6944754)
(159.5990046 0.4828141085 -0.0001704862433 -89.72923462 -298.6732721 -0.00108577444 -8.316284723e-05 1.865616873e-14 161.6532005)
(159.8656889 0.59141779 -0.0001729709535 -89.66361059 -298.3216414 -0.001094362864 -7.935392458e-05 0 161.6196293)
(160.1164804 0.7150906584 -0.000175185946 -89.55785634 -297.9897313 -0.001101250715 -7.583367805e-05 0 161.5924959)
(160.3542212 0.8563484104 -0.000177159518 -89.41211225 -297.6811044 -0.001106656373 -7.257670951e-05 0 161.5707648)
(160.5822099 1.018820184 -0.0001789166129 -89.22504264 -297.40022 -0.00111077593 -6.956029048e-05 0 161.553596)
(160.8036192 1.207339598 -0.0001804791885 -88.99381426 -297.1529199 -0.001113784871 -6.676402579e-05 0 161.5403119)
(161.0196417 1.427793789 -0.0001818666972 -88.71439885 -296.9471898 -0.001115839879 -6.416957065e-05 0 161.5303611)
(161.2252079 1.685991347 -0.0001830969773 -88.38308013 -296.7941628 -0.001117080828 -6.176038164e-05 0 161.5232621)
(161.3981445 1.985093049 -0.0001841886412 -87.99962194 -296.7096379 -0.001117633241 -5.952149918e-05 0 161.5185105)
(161.4937023 2.314291197 -0.0001851698068 -87.58008801 -296.7145853 -0.001117611931 -5.743932819e-05 0 161.5153802)
(161.3225987 2.652874734 -0.000186110297 -87.15343405 -296.8411976 -0.001117127964 -5.550135454e-05 0 161.5128304)
(161.4060805 2.819209094 -0.0001872674523 -86.93003104 -297.1167595 -0.001116297709 -5.369554026e-05 0 161.5076034)
(152.8164579 3.018369562 -0.0001900549933 -86.6972019 -297.6370811 -0.001115216944 -5.200822741e-05 -1.670096904e-14 161.5065849)
(176.082585 -0.3178472478 -0.0002845702107 -87.37800843 -298.4116444 -0.001113530167 -5.041164019e-05 0 161.3900326)
(117.399435 18.3335169 0.0002990437575 -33.95118713 -362.8107315 0.0008158809516 -0.002266699248 0 243.8025559)
(166.1400828 17.97426845 0.0002889217321 -50.37941493 -354.0798726 0.0008276112153 -0.001028825476 -3.123995066e-13 184.883572)
(165.5413965 10.04970669 0.0001595809951 -58.81780081 -345.7645036 0.0007446792925 -0.000710501339 0 177.2495425)
(162.997969 6.786064279 0.0001014322285 -65.65604462 -339.5353797 0.000648906539 -0.0005551242804 0 173.6571736)
(160.4388903 5.201645028 6.121469748e-05 -71.37146962 -334.5718597 0.0005505163055 -0.000459879862 0 171.100148)
(158.4890689 4.225421535 2.893054854e-05 -76.41032798 -330.7425504 0.0004516572638 -0.0003938506173 0 169.1508475)
(156.9422812 3.472935481 1.440607971e-06 -80.98293311 -327.7467045 0.0003532523184 -0.0003444580445 0 167.5837509)
(155.7755495 2.858094367 -2.259859187e-05 -85.13601052 -325.4246023 0.000256072642 -0.0003055855524 0 166.2963267)
(154.9337204 2.321795555 -4.386147732e-05 -88.92542437 -323.6683695 0.0001609025229 -0.000273887991 0 165.2256491)
(154.3752318 1.841018624 -6.275265719e-05 -92.38753888 -322.3920167 6.849370114e-05 -0.000247371273 0 164.3303594)
(154.0590089 1.405037774 -7.955401432e-05 -95.55212591 -321.524435 -2.049074929e-05 -0.0002247647568 0 163.5804182)
(153.9462449 1.010320631 -9.448679401e-05 -98.4434481 -321.0029981 -0.0001055141753 -0.0002052140296 4.826887008e-14 162.9526435)
(153.9994816 0.6562753144 -0.0001077387017 -101.0827113 -320.7708629 -0.000186180806 -0.0001881183682 0 162.4282729)
(154.1830629 0.3429608149 -0.0001194761633 -103.4896216 -320.7760846 -0.0002622332438 -0.0001730392671 0 161.9916061)
(154.4640762 0.06984312481 -0.0001298500692 -105.6833303 -320.9717687 -0.0003335394561 -0.0001596462748 0 161.6292383)
(154.8132716 -0.1647208988 -0.0001389985863 -107.6828215 -321.3165208 -0.0004000744006 -0.0001476835177 0 161.3296153)
(155.2056757 -0.3634969077 -0.0001470486253 -109.5068662 -321.7747531 -0.0004618999375 -0.0001369482329 0 161.0827587)
(155.6208073 -0.5301075018 -0.0001541166764 -111.1737271 -322.3166697 -0.0005191453298 -0.0001272765538 0 160.8800762)
(156.0425323 -0.6686595447 -0.0001603093546 -112.7007884 -322.9179306 -0.0005719896111 -0.0001185338142 0 160.7142085)
(156.4586589 -0.783378546 -0.0001657238437 -114.1042179 -323.5590864 -0.0006206464008 -0.000110607766 5.578274167e-14 160.578893)
(156.8603756 -0.8783157663 -0.0001704483163 -115.3987238 -324.2248909 -0.0006653513081 -0.000103403723 0 160.4688355)
(157.2416326 -0.9571406276 -0.0001745623734 -116.5974103 -324.9035868 -0.0007063518071 -9.684100062e-05 0 160.3795871)
(157.5985568 -1.023001479 -0.000178137532 -117.7117154 -325.5862275 -0.0007438993347 -9.0850256e-05 0 160.3074285)
(157.928939 -1.07843125 -0.0001812377474 -118.7514112 -326.2660741 -0.0007782433117 -8.537145783e-05 0 160.2492645)
(158.2318183 -1.125283856 -0.0001839199772 -119.7246526 -326.9380947 -0.0008096267582 -8.035231626e-05 0 160.2025284)
(158.5071606 -1.164698443 -0.0001862347504 -120.6380542 -327.5985845 -0.0008382832164 -7.574704117e-05 0 160.1650985)
(158.7556466 -1.197086101 -0.0001882267326 -121.4967781 -328.2449053 -0.0008644346951 -7.151534771e-05 0 160.1352266)
(158.9785889 -1.222133869 -0.0001899352828 -122.3046273 -328.8753439 -0.0008882904246 -6.762165448e-05 0 160.111477)
(159.1779785 -1.238835526 -0.0001913949782 -123.0641643 -329.4890866 -0.0009100462388 -6.403442161e-05 0 160.0926772)
(159.3567617 -1.245580598 -0.0001926361599 -123.7768821 -330.0863172 -0.0009298844214 -6.072560198e-05 0 160.0778788)
(159.5194872 -1.240330393 -0.0001936854757 -124.443436 -330.6684508 -0.0009479739155 -5.767018236e-05 0 160.0663296)
(159.6736765 -1.22090982 -0.0001945665152 -125.0639577 -331.2384959 -0.0009644708057 -5.484579668e-05 0 160.0574592)
(159.8321678 -1.185276221 -0.0001953007976 -125.6383066 -331.8015494 -0.0009795190798 -5.223239005e-05 0 160.050883)
(160.0182302 -1.13188045 -0.000195909714 -126.1664154 -332.3652306 -0.0009932517563 -4.981192869e-05 0 160.0464269)
(160.2673424 -1.05739142 -0.0001964190562 -126.6457776 -332.940244 -0.001005792672 -4.756812934e-05 0 160.0442052)
(160.669095 -0.9599399101 -0.0001968720234 -127.0753373 -333.5385297 -0.001017259329 -4.548618139e-05 -2.79591843e-14 160.0446328)
(161.1602594 -0.7976283412 -0.0001973644146 -127.4111535 -334.1744833 -0.001027767104 -4.355236774e-05 0 160.0491186)
(163.0638344 -0.6279372819 -0.0001981575541 -127.7257348 -334.8426501 -0.001037428975 -4.175339901e-05 -3.097951098e-14 160.0567944)
(156.9298082 0.09015300894 -0.0002003380552 -127.4619613 -335.5300115 -0.001046316451 -4.007473459e-05 0 160.0871738)
(178.9083625 2.096691598 -0.0002936015211 -127.0851586 -336.2087308 -0.001054249915 -3.849197511e-05 0 160.0137564)
(115.0085973 19.21869873 0.000303867226 -26.30544398 -346.6313136 0.0007601305634 -0.002548835834 0 233.2437831)
(163.6463934 19.3404977 0.0002845300341 -43.21094645 -342.3098292 0.0007972082359 -0.001128670064 0 179.2221463)
(163.7951705 11.37444986 0.0001455971809 -53.49237142 -336.0439101 0.0007467842504 -0.0007675734269 0 173.0341163)
(161.4951449 7.931053474 8.436769916e-05 -61.68219769 -330.6660954 0.0006790506417 -0.000592857512 -1.554897773e-13 170.1353598)
(159.0875868 6.184816352 4.199392999e-05 -68.38524178 -326.1567776 0.0006032556114 -0.0004864302893 -1.319203636e-13 168.0030845)
(157.2201562 5.062810178 7.79789833e-06 -74.19493137 -322.564247 0.0005219995588 -0.0004129896299 0 166.3399343)
(155.7298827 4.193260485 -2.144002459e-05 -79.3863134 -319.6698303 0.0004368835656 -0.0003582449083 0 164.9780965)
(154.6106027 3.475807255 -4.7036675e-05 -84.05822093 -317.3587857 0.000349391503 -0.0003152809818 0 163.8462541)
(153.8096228 2.847336042 -6.963153887e-05 -88.29338043 -315.5430136 0.0002609733016 -0.0002803328255 0 162.8979857)
(153.2888955 2.28330163 -8.960898089e-05 -92.14388079 -314.1497426 0.0001729726591 -0.0002511644528 0 162.1019696)
(153.0090041 1.772658117 -0.0001072470817 -95.64922583 -313.1163773 8.655999113e-05 -0.0002263550857 0 161.4345259)
(152.9322782 1.312498272 -0.0001227767102 -98.83975902 -312.3860127 2.69347175e-06 -0.0002049509876 0 160.8767245)
(153.0217366 0.9032456682 -0.0001364044002 -101.7408423 -311.9055834 -7.789098245e-05 -0.0001862820075 0 160.4127399)
(153.2417112 0.5459738953 -0.0001483207845 -104.375461 -311.6255424 -0.0001546686358 -0.0001698587795 0 160.0289487)
(153.5589474 0.2408964237 -0.00015870331 -106.7657726 -311.5004854 -0.0002273020799 -0.0001553121191 0 159.7134396)
(153.9437028 -0.01325752618 -0.0001677168703 -108.9337473 -311.4900042 -0.0002956114637 -0.000142355729 0 159.4557483)
(154.3705235 -0.2192440905 -0.0001755138264 -110.9011489 -311.5593178 -0.0003595436202 -0.0001307623684 0 159.2467051)
(154.818577 -0.3809580309 -0.0001822339729 -112.6891499 -311.6794957 -0.0004191430608 -0.0001203481112 0 159.0783298)
(155.2715774 -0.5029561556 -0.0001880046462 -114.3178361 -311.8272805 -0.0004745264289 -0.0001109616317 0 158.9437392)
(155.7174097 -0.5899954929 -0.0001929410312 -115.8057587 -311.9846152 -0.0005258610333 -0.0001024767097 0 158.8370526)
(156.1475742 -0.6466656315 -0.0001971466425 -117.1696173 -312.1380024 -0.0005733474694 -9.478685035e-05 0 158.7532922)
(156.5565649 -0.6771314248 -0.0002007139457 -118.4240841 -312.2778042 -0.0006172059941 -8.780133734e-05 0 158.688281)
(156.9412836 -0.6849681746 -0.0002037250937 -119.5817508 -312.3975595 -0.0006576661529 -8.144226891e-05 3.025769387e-14 158.6385403)
(157.3005261 -0.6730659188 -0.0002062527276 -120.6531733 -312.4933694 -0.000694959123 -7.564229152e-05 0 158.6011937)
(157.6345726 -0.6435897762 -0.0002083608173 -121.64699 -312.5633852 -0.0007293122358 -7.03428335e-05 0 158.5738786)
(157.944878 -0.5979911009 -0.0002101054917 -122.5700892 -312.6074122 -0.0007609452121 -6.549270228e-05 0 158.5546672)
(158.2338703 -0.5370599801 -0.00021153584 -123.4278043 -312.6266296 -0.0007900676995 -6.104696151e-05 -3.561643409e-14 158.5419982)
(158.5048393 -0.4610105797 -0.0002126946844 -124.2241312 -312.6234124 -0.0008168778008 -5.696601691e-05 0 158.5346184)
(158.7618408 -0.3696043216 -0.0002136192888 -124.9619824 -312.6012404 -0.0008415613286 -5.321485739e-05 -3.89328648e-14 158.5315336)
(159.0095683 -0.262337882 -0.0002143420644 -125.6434938 -312.5646654 -0.0008642915794 -4.976243503e-05 0 158.5319665)
(159.2530021 -0.1387240214 -0.0002148912513 -126.2704067 -312.5192979 -0.0008852294808 -4.658113446e-05 0 158.5353204)
(159.4966566 0.001245453295 -0.0002152916994 -126.8446517 -312.4717443 -0.0009045240083 -4.364632902e-05 0 158.5411426)
(159.7424439 0.1564694343 -0.0002155660687 -127.3691517 -312.4294433 -0.0009223128267 -4.093599989e-05 0 158.5490849)
(159.9885804 0.3229995963 -0.0002157372003 -127.8498669 -312.4002131 -0.0009387231414 -3.843039843e-05 0 158.5588411)
(160.2142035 0.4939029107 -0.0002158334189 -128.2960969 -312.391907 -0.0009538728018 -3.611173726e-05 5.194372238e-14 158.5701127)
(160.4338152 0.6468279445 -0.0002159020833 -128.7347125 -312.4111737 -0.0009678715057 -3.396386767e-05 0 158.5823139)
(160.350402 0.7790780217 -0.0002160395793 -129.1725675 -312.4658293 -0.0009808208231 -3.197187158e-05 0 158.5954924)
(161.3128818 0.7454370063 -0.0002164692264 -129.7811067 -312.5636815 -0.0009928073395 -3.012144355e-05 0 158.6047596)
(153.8027121 0.785058969 -0.0002181381762 -130.3073739 -312.70538 -0.001003866655 -2.839766093e-05 0 158.6295449)
(174.0353277 -0.1514788595 -0.0003158028032 -131.0810433 -313.0410074 -0.001013930931 -2.677710527e-05 0 158.5395683)
(112.613007 19.54592806 0.0003100398351 -20.70990165 -336.8322129 0.0007038214348 -0.002815934153 0 224.8141762)
(160.9816599 20.1524013 0.0002829951019 -37.00085228 -335.7540952 0.0007440110681 -0.001224591554 0 174.2783682)
(161.7999495 12.41122839 0.0001349307427 -48.11839652 -331.2856282 0.0007069538768 -0.0008235526701 0 169.1546393)
(159.7923101 8.909351907 7.017787448e-05 -56.96652813 -326.8106252 0.0006515781822 -0.0006306303961 -1.519150606e-13 166.8007237)
(157.5729251 7.043650901 2.505971003e-05 -64.16331517 -322.8842095 0.0005857608201 -0.0005135335647 0 165.0200019)
(155.8129643 5.791579788 -1.163828009e-05 -70.35191457 -319.7025618 0.0005120927766 -0.0004329103485 0 163.6011846)
(154.3967982 4.80606834 -4.31655324e-05 -75.83368488 -317.1316676 0.0004325072675 -0.0003728963015 0 162.4185856)
(153.3367746 3.978774362 -7.078854221e-05 -80.73872058 -315.0991891 0.0003489153713 -0.0003258455737 0 161.424842)
(152.5852486 3.24549653 -9.510189002e-05 -85.16543011 -313.5368997 0.0002631933033 -0.0002876101165 0 160.5865971)