/*--------------------------------*- C++ -*----------------------------------*\
| =========                 |                                                 |
| \\      /  F ield         | foam-extend: Open Source CFD                    |
|  \\    /   O peration     | Version:     3.2                                |
|   \\  /    A nd           | Web:         http://www.foam-extend.org         |
|    \\/     M anipulation  | For copyright notice see file Copyright         |
\*---------------------------------------------------------------------------*/
FoamFile
{
    version     2.0;
    format      ascii;
    class       volVectorField;
    location    "0.12";
    object      vorticity;
}
// * * * * * * * * * * * * * * * * * * * * * * * * * * * * * * * * * * * * * //

dimensions      [0 0 -1 0 0 0 0];

internalField   nonuniform List<vector> 
18000
(
(0.005068871581 -0.002244499089 -908.2626472)
(0.008701540837 -0.001617440738 -1807.054144)
(0.01113360108 -0.001256985535 -2688.620439)
(0.0129809461 -0.001071059056 -3510.951506)
(0.01444679702 -0.0009494037549 -4271.628292)
(0.01563080022 -0.0008604685298 -4978.757746)
(0.01659383138 -0.0007910478474 -5637.981229)
(0.01737811909 -0.0007344882009 -6254.02563)
(0.01801526903 -0.0006870438024 -6831.037674)
(0.01853010226 -0.000646426261 -7372.608157)
(0.01894271938 -0.0006111431836 -7881.832518)
(0.01926971936 -0.0005801668855 -8361.379725)
(0.01952498098 -0.0005527565279 -8813.552675)
(0.01972019864 -0.0005283567543 -9240.342341)
(0.01986527081 -0.0005065369329 -9643.477994)
(0.01996859487 -0.0004869532315 -10024.47317)
(0.02003729974 -0.0004693241878 -10384.66633)
(0.02007743504 -0.0004534145891 -10725.25542)
(0.0200941286 -0.0004390246267 -11047.32623)
(0.0200917198 -0.0004259824465 -11351.8747)
(0.02007387358 -0.0004141389177 -11639.82418)
(0.02004367854 -0.0004033638464 -11912.03809)
(0.02000373149 -0.0003935431743 -12169.32918)
(0.01995621045 -0.0003845768427 -12412.46605)
(0.01990293746 -0.0003763771171 -12642.17772)
(0.01984543271 -0.0003688672233 -12859.15678)
(0.01978496087 -0.0003619802265 -13064.06163)
(0.01972257089 -0.0003556581278 -13257.51795)
(0.01965913001 -0.0003498511593 -13440.11968)
(0.01959535295 -0.0003445172537 -13612.42974)
(0.01953182686 -0.000339621561 -13774.98048)
(0.01946903279 -0.000335135721 -13928.27408)
(0.01940736385 -0.0003310362723 -14072.78338)
(0.01934714052 -0.0003273008405 -14208.95371)
(0.01928862262 -0.0003238995421 -14337.20764)
(0.01923201705 -0.0003207769168 -14457.95525)
(0.01917747846 -0.0003178154202 -14571.61641)
(0.01912509049 -0.000314725297 -14678.70055)
(0.01907469712 -0.0003106489604 -14780.64669)
(0.01902428021 -0.0003257241497 -14883.50503)
(-6.393925404e-05 -0.00192853358 53.31421019)
(-0.000827457737 -0.00131532414 0.7228770954)
(-0.001435620636 -0.001008902706 -61.87733001)
(-0.001956765455 -0.0008444566741 -118.9785782)
(-0.002427228255 -0.0007299175668 -171.916155)
(-0.002863960489 -0.0006409313878 -221.328434)
(-0.003275536116 -0.0005675108515 -267.3875746)
(-0.003666593247 -0.0005047199776 -310.1981696)
(-0.004039785445 -0.0004497746471 -349.8855413)
(-0.004396722847 -0.0004009588439 -386.5895682)
(-0.004738447466 -0.0003571398628 -420.4623146)
(-0.005065684534 -0.0003175267734 -451.663945)
(-0.005378981513 -0.0002815400122 -480.3589632)
(-0.005678787645 -0.0002487361562 -506.7129482)
(-0.005965500259 -0.0002187625347 -530.8897428)
(-0.006239491619 -0.0001913289799 -553.049086)
(-0.006501124141 -0.000166189858 -573.344743)
(-0.006750758539 -0.0001431324956 -591.9231425)
(-0.006988757783 -0.0001219696201 -608.9225006)
(-0.007215488546 -0.0001025343289 -624.4723622)
(-0.007431321324 -8.467665261e-05 -638.693461)
(-0.007636629773 -6.82611395e-05 -651.6978322)
(-0.007831789682 -5.316507408e-05 -663.5891171)
(-0.008017177798 -3.927711171e-05 -674.4629856)
(-0.008193170632 -2.649616816e-05 -684.4076133)
(-0.00836014333 -1.473049288e-05 -693.5041665)
(-0.00851846858 -3.896894424e-06 -701.8272831)
(-0.008668515626 6.079907604e-06 -709.4455594)
(-0.00881064939 1.526775891e-05 -716.4220409)
(-0.008945229697 2.372743406e-05 -722.8146928)
(-0.009072610684 3.151276717e-05 -728.6768191)
(-0.009193140234 3.867039152e-05 -734.0573944)
(-0.009307159246 4.523879142e-05 -739.0012385)
(-0.009415000264 5.124611583e-05 -743.5488432)
(-0.009516984568 5.670584667e-05 -747.7354511)
(-0.009613416204 6.161005502e-05 -751.5887383)
(-0.009704571617 6.592952182e-05 -755.1245426)
(-0.00979068902 6.976426837e-05 -758.3383929)
(-0.009871997316 7.555865227e-05 -761.2464916)
(-0.009949351212 0.0001857196188 -759.486893)
(0.0006541833246 -0.002010757549 57.32354524)
(0.0002771920232 -0.001191061613 52.24693891)
(-0.000140342393 -0.0008508338815 36.65732165)
(-0.0005204680874 -0.0006782982971 26.98266984)
(-0.0008575808438 -0.0005637329241 19.68605191)
(-0.001155722916 -0.0004777766022 13.40377351)
(-0.001419180024 -0.0004087756252 7.568606746)
(-0.001651893897 -0.0003510415108 1.919977304)
(-0.001857264635 -0.0003014280878 -3.678501403)
(-0.002038225907 -0.000258026235 -9.295132707)
(-0.002197343914 -0.000219590559 -14.96181581)
(-0.002336897596 -0.0001852587649 -20.69002086)
(-0.002458936545 -0.0001544030528 -26.47951086)
(-0.002565319262 -0.0001265463282 -32.32322157)
(-0.002657737707 -0.0001013125437 -38.21006796)
(-0.002737733418 -7.839605633e-05 -44.12659882)
(-0.002806708976 -5.754211465e-05 -50.05800885)
(-0.00286593715 -3.853410296e-05 -55.98880051)
(-0.002916569103 -2.118497257e-05 -61.903241)
(-0.002959642324 -5.331320633e-06 -67.78570779)
(-0.002996088509 9.170829196e-06 -73.62096604)
(-0.00302674147 2.244912814e-05 -79.39440241)
(-0.003052344968 3.461726521e-05 -85.0922294)
(-0.003073560411 4.577683104e-05 -90.70165252)
(-0.003090974302 5.601883853e-05 -96.21098983)
(-0.003105105364 6.542498908e-05 -101.6097508)
(-0.003116411274 7.406873889e-05 -106.8886908)
(-0.003125294991 8.201621165e-05 -112.0398538)
(-0.003132110663 8.932695238e-05 -117.0566008)
(-0.003137169135 9.605461919e-05 -121.9336239)
(-0.003140743099 0.0001022475907 -126.6669702)
(-0.00314307195 0.0001079495345 -131.2541143)
(-0.003144366553 0.0001132000418 -135.6941355)
(-0.003144814255 0.0001180355321 -139.9881177)
(-0.00314458482 0.0001224910216 -144.1400678)
(-0.003143838745 0.0001266054453 -148.1585247)
(-0.003142741436 0.000130445519 -152.0600561)
(-0.003141488007 0.0001342646657 -155.8658864)
(-0.003140303985 0.0001399061586 -159.6076264)
(-0.003138699158 0.0002501994678 -161.32335)
(0.0008345341624 -0.002272843868 59.60929385)
(0.0007539653624 -0.001231827467 71.22717002)
(0.0005849473643 -0.000839017955 67.8175216)
(0.0004177723897 -0.0006477731989 68.51668621)
(0.0002623346455 -0.0005247458993 70.39034748)
(0.0001189831956 -0.0004345958876 72.55459003)
(-1.307697795e-05 -0.0003635820106 74.6992724)
(-0.0001346756862 -0.0003051035089 76.71522906)
(-0.0002464505278 -0.0002555684266 78.55844105)
(-0.0003488961211 -0.0002128204004 80.21760758)
(-0.00044243353 -0.0001754612281 81.69610096)
(-0.0005274625691 -0.0001425244095 83.0040352)
(-0.000604391925 -0.0001133051251 84.15430341)
(-0.0006736518955 -8.726611511e-05 85.16062723)
(-0.0007356958985 -6.398267597e-05 86.03659042)
(-0.000790995672 -4.310903262e-05 86.79516471)
(-0.0008400336298 -2.435698647e-05 87.44848747)
(-0.0008832945195 -7.481916501e-06 88.00776488)
(-0.0009212575994 7.726672662e-06 88.48325119)
(-0.000954389899 2.14517538e-05 88.88426689)
(-0.0009831407882 3.385352227e-05 89.21923531)
(-0.001007937854 4.507292637e-05 89.49572449)
(-0.001029183997 5.523439868e-05 89.72048956)
(-0.001047255595 6.444802619e-05 89.89952278)
(-0.001062501569 7.281135199e-05 90.03811655)
(-0.001075243188 8.041088615e-05 90.14093037)
(-0.00108577444 8.73233961e-05 90.21204873)
(-0.001094362864 9.361702892e-05 90.25502838)
(-0.001101250715 9.935226797e-05 90.272947)
(-0.001106656373 0.0001045828085 90.26846066)
(-0.00111077593 0.0001093563224 90.24386282)
(-0.001113784871 0.0001137151627 90.20115386)
(-0.001115839879 0.0001176971265 90.14219264)
(-0.001117080828 0.0001213365957 90.06907148)
(-0.001117633241 0.000124667142 89.98471499)
(-0.001117611931 0.0001277304787 89.89437921)
(-0.001117127964 0.0001306089425 89.80630878)
(-0.001116297709 0.000133571912 89.74924014)
(-0.001115216944 0.0001380467659 89.71557146)
(-0.001113530167 0.0002341585705 87.06016118)
(0.0008158809516 -0.002565743006 52.28470403)
(0.0008276112157 -0.001317747208 68.35368338)
(0.0007446792925 -0.0008700823342 68.8675075)
(0.000648906539 -0.0006565565089 72.4421089)
(0.0005505163055 -0.0005210945595 76.57311465)
(0.0004516572638 -0.0004227811659 80.63574952)
(0.0003532523184 -0.0003458986525 84.45586859)
(0.000256072642 -0.0002829869606 87.99410489)
(0.0001609025229 -0.0002300265137 91.24721993)
(6.849370114e-05 -0.0001846186158 94.2285575)
(-2.049074929e-05 -0.0001452107425 96.95716368)
(-0.0001055141754 -0.0001107272356 99.45376874)
(-0.000186180806 -8.037966651e-05 101.7389866)
(-0.0002622332438 -5.35631038e-05 103.8325824)
(-0.0003335394561 -2.979620566e-05 105.7531734)
(-0.0004000744006 -8.684931433e-06 107.5181006)
(-0.0004618999375 1.010039239e-05 109.1433693)
(-0.0005191453298 2.684012261e-05 110.6436196)
(-0.0005719896111 4.17755404e-05 112.0321288)
(-0.0006206464009 5.511607774e-05 113.3208393)
(-0.0006653513081 6.704459333e-05 114.520408)
(-0.0007063518071 7.772137281e-05 115.6402697)
(-0.0007438993347 8.728727603e-05 116.6887139)
(-0.0007782433117 9.586628958e-05 117.67298)
(-0.0008096267582 0.0001035676609 118.5993688)
(-0.0008382832164 0.0001104877092 119.4733558)
(-0.0008644346951 0.0001167113849 120.299692)
(-0.0008882904246 0.0001223136283 121.0824934)
(-0.0009100462388 0.0001273605566 121.8253288)
(-0.0009298844214 0.0001319105579 122.5313015)
(-0.0009479739155 0.0001360152934 123.2031056)
(-0.0009644708057 0.0001397207186 123.8430479)
(-0.0009795190798 0.0001430684075 124.4530304)
(-0.0009932517563 0.0001460977853 125.0345349)
(-0.001005792672 0.0001488509268 125.5883862)
(-0.001017259329 0.000151385842 126.1153973)
(-0.001027767104 0.0001538120469 126.6135251)
(-0.001037428975 0.0001564041551 127.0977975)
(-0.001046316451 0.0001602633206 127.5521143)
(-0.001054249915 0.000255109546 129.1818502)
(0.0007601305634 -0.00285270306 45.52414271)
(0.0007972082359 -0.001413200098 62.55144415)
(0.0007467842504 -0.0009131706077 64.86682128)
(0.0006790506418 -0.0006772252112 69.61325117)
(0.0006032556116 -0.0005284242193 74.57005813)
(0.0005219995588 -0.0004207875283 79.25774155)
(0.0004368835656 -0.0003368048837 83.57957389)
(0.000349391503 -0.0002682443068 87.53402818)
(0.0002609733016 -0.0002107012867 91.14071647)
(0.0001729726591 -0.0001615554719 94.42718242)
(8.655999113e-05 -0.000119108004 97.42188395)
(2.69347175e-06 -8.217427741e-05 100.1522573)
(-7.789098245e-05 -4.987760728e-05 102.644088)
(-0.0001546686358 -2.153799504e-05 104.9214349)
(-0.0002273020799 3.391190874e-06 107.006669)
(-0.0002956114637 2.536114135e-05 108.9204898)
(-0.0003595436202 4.475145797e-05 110.6819048)
(-0.0004191430608 6.188586167e-05 112.3081919)
(-0.0004745264289 7.704301449e-05 113.8148799)
(-0.0005258610333 9.046432152e-05 115.2157632)
(-0.0005733474694 0.0001023597922 116.5229517)
(-0.0006172059941 0.0001129126083 117.7469527)
(-0.000657666153 0.0001222828248 118.8967827)
(-0.000694959123 0.000130610436 119.9801074)
(-0.0007293122358 0.0001380179838 121.0034002)
(-0.0007609452121 0.0001446127894 121.9720981)
(-0.0007900676995 0.0001504888785 122.8907443)
(-0.0008168778008 0.0001557286675 123.7631207)
(-0.0008415613286 0.0001604044314 124.5923781)
(-0.0008642915794 0.0001645796293 125.3811559)
(-0.0008852294808 0.0001683101168 126.1316827)
(-0.0009045240083 0.0001716453704 126.8458972)
(-0.0009223128267 0.0001746300688 127.5256211)
(-0.0009387231414 0.0001773068018 128.1728665)
(-0.0009538728019 0.0001797216816 128.7899998)
(-0.0009678715057 0.0001819382156 129.3815404)
(-0.0009808208231 0.0001840677077 129.9516455)
(-0.0009928073395 0.0001863477829 130.5265437)
(-0.001003866655 0.0001897405153 131.0924328)
(-0.001013930931 0.0002890256979 130.9295644)
(0.0007038214348 -0.003125973988 40.25582971)
(0.0007440110681 -0.001507586656 57.15325358)
(0.0007069538768 -0.0009584834128 60.5296249)
(0.0006515781823 -0.0007008082706 65.87588003)
(0.0005857608201 -0.0005385932748 71.20696607)
(0.0005120927766 -0.0004212720684 76.14349435)
(0.0004325072675 -0.0003297307691 80.63975322)
(0.0003489153713 -0.0002550570315 84.71749494)
(0.0002631933033 -0.0001925082265 88.41092664)
(0.0001770679751 -0.0001392650345 91.75681866)
(9.202813404e-05 -9.349000068e-05 94.78997952)
(9.277247265e-06 -5.38878179e-05 97.54261654)
(-7.027470462e-05 -1.948609045e-05 100.0444753)
(-0.0001459914873 1.048056291e-05 102.3231714)
(-0.0002174745647 3.663519883e-05 104.4043924)
(-0.0002845203001 5.949677905e-05 106.3119268)
(-0.0003470770828 7.950416188e-05 108.0675828)
(-0.0004052063617 9.703211449e-05 109.6910742)
(-0.0004590494796 0.0001124026576 111.1999397)
(-0.0005088008324 0.0001258935737 112.6095272)
(-0.0005546870211 0.000137745063 113.9330467)
(-0.000596951239 0.0001481651431 115.181685)
(-0.0006358419936 0.000157334158 116.364773)
(-0.0006716052607 0.0001654085919 117.4899929)
(-0.0007044792545 0.000172524339 118.5636053)
(-0.0007346911463 0.0001787995033 119.590667)
(-0.000762455175 0.0001843368175 120.5752313)
(-0.0007879717543 0.0001892257339 121.5205335)
(-0.0008114272549 0.0001935442287 122.4291646)
(-0.0008329942256 0.0001973604218 123.3032132)
(-0.0008528319065 0.0002007340383 124.1443597)
(-0.0008710869229 0.0002037179018 124.9539577)
(-0.0008878941018 0.0002063598173 125.7331059)
(-0.000903377347 0.0002087055765 126.4827918)
(-0.0009176504345 0.0002108046085 127.2037391)
(-0.0009308173097 0.0002127222314 127.897958)
(-0.0009429702147 0.0002145628897 128.5654994)
(-0.000954182567 0.0002165210447 129.2260837)
(-0.0009644834569 0.0002194428852 129.8760498)
(-0.0009738451557 0.0003234644991 131.0592639)
(0.0006543715677 -0.003385319638 36.20785842)
(0.0006899884383 -0.001597860243 52.62929665)
(0.0006586681869 -0.001002813091 56.71841976)
(0.0006093696256 -0.0007242558497 62.41283147)
(0.0005485072326 -0.0005487893187 67.93160753)
(0.0004784910471 -0.0004216847461 72.97075759)
(0.0004014532034 -0.0003224013642 77.5204092)
(0.0003196223092 -0.0002414334582 81.61776195)
(0.0002352072369 -0.0001737446578 85.30708179)
(0.0001502321995 -0.000116336434 88.6315344)
(6.64198744e-05 -6.723642975e-05 91.63048881)
(-1.486690377e-05 -2.503204171e-05 94.33982009)
(-9.263100573e-05 1.135715635e-05 96.79263488)
(-0.0001662097754 4.27964158e-05 99.01986005)
(-0.0002352231958 6.99993761e-05 101.0504606)
(-0.0002995149384 9.356506617e-05 102.9113464)
(-0.0003590954845 0.0001140013223 104.6271206)
(-0.000414092426 0.0001317409787 106.219814)
(-0.0004647100082 0.0001471539566 107.7087056)
(-0.0005111979881 0.0001605568988 109.1102691)
(-0.0005538288194 0.0001722210994 110.4382436)
(-0.0005928817043 0.0001823791959 111.7038079)
(-0.0006286319928 0.0001912308868 112.9158355)
(-0.0006613445502 0.0001989478013 114.0811993)
(-0.000691269945 0.0002056776671 115.205092)
(-0.0007186425606 0.0002115478535 116.2913279)
(-0.0007436799713 0.0002166683625 117.3426152)
(-0.0007665831129 0.0002211343964 118.3608042)
(-0.0007875369179 0.0002250285105 119.3471089)
(-0.0008067111902 0.0002284224872 120.3022854)
(-0.0008242615917 0.0002313790014 121.2267732)
(-0.0008403306441 0.0002339532387 122.1208451)
(-0.0008550486728 0.000236194836 122.984767)
(-0.0008685346109 0.0002381507572 123.8190773)
(-0.0008808964549 0.000239870312 124.6246764)
(-0.0008922309701 0.0002414150379 125.4046302)
(-0.000902621251 0.0002428762042 126.1616189)
(-0.0009121312361 0.0002444087488 126.9170183)
(-0.0009207891289 0.000246803868 127.6782498)
(-0.0009285921342 0.000354381637 128.4555251)
(0.0006123334197 -0.003632315512 33.02612928)
(0.0006408510116 -0.001683344627 48.87998299)
(0.0006118849235 -0.00104511061 53.49141108)
(0.0005658512162 -0.0007464919739 59.40610911)
(0.000507723793 -0.0005579959726 65.02342831)
(0.0004396693686 -0.0004211041135 70.09949892)
(0.0003639648997 -0.0003140113232 74.65093344)
(0.0002831102123 -0.0002266995547 78.72596203)
(0.0001996050671 -0.0001538791824 82.37631991)
(0.0001157282962 -9.238782742e-05 85.64994098)
(3.33880039e-05 -4.011639656e-05 88.5897739)
(-4.594948617e-05 4.477743519e-06 91.23489692)
(-0.0001212607413 4.260110154e-05 93.62174856)
(-0.000191917748 7.523773327e-05 95.78484863)
(-0.0002576152093 0.0001032086835 97.75687465)
(-0.0003182915546 0.000127206197 99.56829048)
(-0.0003740559615 0.0001478161115 101.2468045)
(-0.0004251275713 0.0001655344973 102.8168822)
(-0.0004717886951 0.0001807811986 104.2994472)
(-0.0005143511195 0.0001939113966 105.7118074)
(-0.0005531333773 0.0002052256251 107.0677861)
(-0.0005884464725 0.000214978423 108.3780106)
(-0.0006205857085 0.000223385772 109.6503084)
(-0.0006498266656 0.0002306313958 110.8901571)
(-0.0006764238299 0.000236872056 112.1011371)
(-0.0007006107931 0.0002422419441 113.285346)
(-0.0007226013073 0.0002468563224 114.4437659)
(-0.0007425907242 0.0002508145407 115.5765859)
(-0.000760757538 0.000254202506 116.683471)
(-0.0007772648772 0.0002570947744 117.7637606)
(-0.0007922618746 0.0002595563477 118.8166145)
(-0.0008058848717 0.0002616443473 119.8411527)
(-0.0008182584188 0.0002634098751 120.8365728)
(-0.0008294959995 0.0002649005413 121.8023498)
(-0.0008397002867 0.0002661645364 122.7382764)
(-0.0008489626097 0.00026725799 123.6460773)
(-0.0008573605626 0.0002682579631 124.5274703)
(-0.0008649538049 0.0002692842656 125.4009378)
(-0.0008717720137 0.0002710677439 126.286273)
(-0.0008778100138 0.0003803448512 127.6980319)
(0.0005767524232 -0.003868842793 30.46415142)
(0.0005976899935 -0.001764195069 45.7527367)
(0.0005695156536 -0.001085141671 50.76656398)
(0.00052540924 -0.0007672003972 56.82793179)
(0.0004689733868 -0.0005658928137 62.49556487)
(0.000402119196 -0.0004192406527 67.57483327)
(0.0003272498647 -0.0003043243015 72.10261334)
(0.0002471174862 -0.000210688731 76.13553838)
(0.0001644931676 -0.0001328274058 79.73120748)
(8.188576251e-05 -6.742437669e-05 82.94129952)
(1.354271443e-06 -1.222541247e-05 85.81178052)
(-7.55766474e-05 3.4461977e-05 88.38483619)
(-0.0001479088634 7.399463116e-05 90.70056586)
(-0.0002151003878 0.0001074985347 92.79769011)
(-0.0002769654649 0.0001359207249 94.71328371)
(-0.0003335712841 0.0001600593042 96.48193517)
(-0.0003851472335 0.0001805848859 98.13478041)
(-0.0004320135811 0.0001980586569 99.69873298)
(-0.0004745303318 0.0002129486819 101.1960688)
(-0.0005130636434 0.0002256447374 102.6443824)
(-0.000547965891 0.000236471532 104.0568501)
(-0.0005795654326 0.0002457001797 105.4427108)
(-0.000608162707 0.0002535579395 106.807872)
(-0.0006340301092 0.0002602362673 108.1555597)
(-0.0006574138369 0.0002658973895 109.4869391)
(-0.0006785365608 0.0002706795761 110.8016647)
(-0.0006976002343 0.0002747013574 112.0983512)
(-0.0007147886894 0.0002780648893 113.3749707)
(-0.0007302698611 0.0002808586128 114.6291655)
(-0.000744197613 0.0002831594301 115.8584699)
(-0.0007567131977 0.0002850345032 117.0604756)
(-0.0007679463862 0.0002865428404 118.2329898)
(-0.0007780162848 0.0002877369426 119.3741785)
(-0.0007870318157 0.0002886648345 120.4828067)
(-0.0007950917068 0.0002893731391 121.5583946)
(-0.0008022837587 0.000289912142 122.6027548)
(-0.0008086825624 0.0002903452325 123.6188223)
(-0.0008143459319 0.000290761569 124.6251055)
(-0.0008193051529 0.0002918378823 125.6524097)
(-0.0008235521428 0.000400788926 127.2061993)
(0.0005464501004 -0.004096641518 28.35314647)
(0.0005601420946 -0.001840837533 43.11316236)
(0.0005320365724 -0.001122981864 48.448027)
(0.0004891932187 -0.0007863631941 54.61059246)
(0.0004339316993 -0.0005724343969 60.30066551)
(0.0003679195512 -0.0004160530598 65.36466167)
(0.0002936844244 -0.0002933239789 69.85547048)
(0.000214224229 -0.0001934255685 73.83653593)
(0.0001325721682 -0.000110666729 77.37027899)
(5.145044347e-05 -4.158260336e-05 80.51145769)
(-2.69606677e-05 1.62421403e-05 83.30878209)
(-0.0001011205785 6.467763056e-05 85.80776354)
(-0.0001701054396 0.0001052616561 88.05283055)
(-0.000233506087 0.0001392887539 90.08782388)
(-0.0002912934684 0.0001678508761 91.95512141)
(-0.0003436868791 0.0001918622964 93.69409887)
(-0.0003910447428 0.0002120811274 95.33960247)
(-0.0004337846653 0.0002291307311 96.92086262)
(-0.0004723312788 0.0002435209296 98.4610103)
(-0.000507086447 0.0002556679931 99.97715795)
(-0.0005384154426 0.0002659124988 101.4809079)
(-0.0005666433273 0.0002745345729 102.97913)
(-0.0005920570664 0.000281766434 104.4748653)
(-0.0006149102771 0.0002878024059 105.9682366)
(-0.0006354286681 0.000292806732 107.4572762)
(-0.0006538151221 0.0002969195717 108.9386308)
(-0.0006702539373 0.000300261573 110.4081396)
(-0.0006849141167 0.0003029373555 111.8612967)
(-0.0006979517665 0.0003050381346 113.2935899)
(-0.0007095117707 0.0003066437939 114.7007237)
(-0.0007197289089 0.0003078245239 116.0787728)
(-0.0007287285569 0.0003086421893 117.4243143)
(-0.0007366270554 0.0003091516463 118.7345326)
(-0.0007435317668 0.0003094021853 120.0074149)
(-0.0007495407008 0.0003094395352 121.2419202)
(-0.0007547415158 0.0003093087214 122.4394051)
(-0.0007592091816 0.0003090602001 123.6030412)
(-0.0007630024843 0.0003087542306 124.7508342)
(-0.0007661550779 0.0003090029331 125.9249272)
(-0.0007686523024 0.0004155101719 127.9586769)
(0.0005203558174 -0.004317192325 26.57901863)
(0.0005274307523 -0.001913754208 40.85784529)
(0.0004990773777 -0.001158815847 46.45520565)
(0.0004571566617 -0.0008040754565 52.68923753)
(0.0004027991583 -0.0005776810515 58.38473912)
(0.0003374532649 -0.0004115946208 63.42274309)
(0.0002637774067 -0.0002810754686 67.86918104)
(0.0001850147529 -0.0001750017474 71.79331619)
(0.0001044563421 -8.752634006e-05 75.2616675)
(2.502425092e-05 -1.503388247e-05 78.33161038)
(-5.100910586e-05 4.507669981e-05 81.05453107)
(-0.0001221307905 9.488971093e-05 83.47975798)
(-0.0001875404183 0.0001361607419 85.65702558)
(-0.0002470054475 0.0001703817831 87.63647236)
(-0.0003006836185 0.000198806976 89.46681385)
(-0.0003489591534 0.0002224725527 91.19283867)
(-0.0003923159263 0.0002422208005 92.8531958)
(-0.0004312526186 0.0002587280757 94.47900395)
(-0.0004662344101 0.000272533995 96.09340582)
(-0.0004976716549 0.0002840689985 97.71192364)
(-0.0005259159072 0.0002936784594 99.34336459)
(-0.0005512654401 0.0003016425457 100.9910242)
(-0.0005739747425 0.0003081918763 102.6539793)
(-0.0005942645801 0.0003135193794 104.3283144)
(-0.000612330826 0.0003177890448 106.0081818)
(-0.0006283513619 0.000321142234 107.6866629)
(-0.0006424909803 0.0003237021895 109.3564398)
(-0.0006549045571 0.0003255772478 111.0102976)
(-0.0006657388792 0.0003268631174 112.6414631)
(-0.0006751335181 0.0003276445986 114.2438046)
(-0.0006832210882 0.000327996868 115.8119566)
(-0.0006901271226 0.0003279865027 117.341419)
(-0.0006959697142 0.0003276723875 118.8286337)
(-0.000700858976 0.0003271065404 120.2711604)
(-0.0007048962149 0.0003263350736 121.6678794)
(-0.0007081726334 0.0003253989647 123.0203675)
(-0.0007107668909 0.0003243369627 124.3327928)
(-0.0007127415253 0.0003231820587 125.6238995)
(-0.0007141343739 0.0003224764327 126.9467071)
(-0.0007149279304 0.0004244935609 129.3588074)
(0.0004975810518 -0.00453170572 25.06248491)
(0.00049873024 -0.001983396856 38.90836707)
(0.0004700098419 -0.001192849987 44.72446998)
(0.0004288298369 -0.0008204636709 51.00977221)
(0.0003752243447 -0.0005817245136 56.69996028)
(0.000310453109 -0.0004059464355 61.70554965)
(0.000237315386 -0.0002676661369 66.10341292)
(0.0001593016571 -0.000155524471 69.96799925)
(7.995888375e-05 -6.35431333e-05 73.36939045)
(2.396216036e-06 1.205243456e-05 76.36724764)
(-7.105309671e-05 7.408367468e-05 79.01574771)
(-0.0001389506808 0.0001248950942 81.36880934)
(-0.0002006701321 0.0001665026043 83.48276408)
(-0.0002561962553 0.000200625023 85.41545746)
(-0.0003058957575 0.0002286918039 87.22303723)
(-0.0003503191857 0.0002518598552 88.9561951)
(-0.0003900595732 0.0002710443261 90.65718155)
(-0.0004256686213 0.0002869580436 92.35819457)
(-0.0004576187035 0.0003001527608 94.08115537)
(-0.0004862955036 0.0003110571164 95.83855119)
(-0.0005120077118 0.0003200085313 97.63492954)
(-0.0005350037892 0.0003272782446 99.46867163)
(-0.0005554895179 0.0003330899158 101.3337646)
(-0.000573643046 0.0003376328016 103.2213853)
(-0.0005896261879 0.0003410707408 105.1211992)
(-0.0006035919625 0.0003435480738 107.0223586)
(-0.0006156889471 0.0003451934521 108.9142372)
(-0.0006260632381 0.0003461222814 110.7869326)
(-0.0006348587932 0.0003464382672 112.6315634)
(-0.0006422167982 0.0003462345045 114.4404096)
(-0.0006482745492 0.000345594254 116.2069704)
(-0.0006531641617 0.0003445915188 117.925996)
(-0.0006570112855 0.0003432915063 119.5935027)
(-0.0006599338703 0.0003417508608 121.2068987)
(-0.0006620408766 0.0003400176132 122.7651861)
(-0.0006634307051 0.0003381299714 124.2703142)
(-0.0006641886925 0.0003361159883 125.7274467)
(-0.0006643834901 0.0003339822055 127.1564434)
(-0.0006640587434 0.000332192983 128.6218503)
(-0.0006631957007 0.0004278332119 131.5380524)
(0.0004774198966 -0.004741149847 23.74727609)
(0.00047330137 -0.002050156894 37.20533088)
(0.0004441903136 -0.001225276724 43.20648741)
(0.0004036488764 -0.0008356516857 49.52891116)
(0.0003507028705 -0.0005846571852 55.2068128)
(0.00028645649 -0.0003991905235 60.17604546)
(0.0002138612787 -0.000253182879 64.52291925)
(0.0001366580542 -0.0001350980695 68.32664623)
(5.864880084e-05 -3.884769311e-05 71.6604461)
(-1.688391824e-05 3.951889205e-05 74.5860202)
(-8.758121548e-05 0.0001030895916 77.16063009)
(-0.0001521307528 0.0001545251789 79.44385784)
(-0.0002101320206 0.0001961489955 81.50023941)
(-0.0002618237125 0.0002299340467 83.39692299)
(-0.0003077941217 0.0002574910279 85.19854739)
(-0.0003487487996 0.0002800865045 86.96193747)
(-0.0003853606564 0.0002986874495 88.73232831)
(-0.0004181955648 0.0003140187523 90.54171617)
(-0.0004476926423 0.0003266214819 92.40913114)
(-0.0004741767783 0.00033690415 94.34224375)
(-0.0004978854556 0.0003451835494 96.33967021)
(-0.0005189980098 0.0003517148551 98.39346216)
(-0.0005376608917 0.000356712347 100.4914303)
(-0.0005540064026 0.0003603627721 102.6191001)
(-0.0005681647481 0.0003628334078 104.7612231)
(-0.0005802704594 0.0003642765708 106.9028677)
(-0.0005904646282 0.0003648319254 109.0301573)
(-0.0005988943793 0.0003646275554 111.1307175)
(-0.0006057107649 0.0003637803841 113.1938824)
(-0.0006110659622 0.0003623964096 115.2107328)
(-0.0006151103668 0.000360570859 117.1740578)
(-0.0006179899215 0.0003583882991 119.0782974)
(-0.0006198438367 0.0003559227224 120.9194854)
(-0.000620802707 0.0003532372673 122.6953244)
(-0.0006209868644 0.0003503833232 124.4053874)
(-0.0006205046955 0.0003473974983 126.0524823)
(-0.0006194502489 0.0003442981492 127.6432368)
(-0.0006178997913 0.0003410663212 129.1993526)
(-0.0006159039207 0.0003380827086 130.797442)
(-0.0006134445836 0.0004257528909 134.2300216)
(0.0004593276402 -0.004946291162 22.59249125)
(0.0004505340545 -0.002114361409 35.70327851)
(0.0004210551354 -0.001256263062 41.86293598)
(0.000381092936 -0.0008497488419 48.21231817)
(0.0003287470527 -0.0005865614985 53.87331048)
(0.0002649998653 -0.0003914010354 58.80373964)
(0.0001929667945 -0.000237705472 63.09826252)
(0.0001166421731 -0.0001138197212 66.84055273)
(4.008242817e-05 -1.356242268e-05 70.10660521)
(-3.327196735e-05 6.721964827e-05 72.9599808)
(-0.0001010767844 0.0001319400663 75.4615139)
(-0.0001622023287 0.0001836422584 77.67785271)
(-0.0002165265499 0.0002250069392 79.68366179)
(-0.00026457253 0.0002582834371 81.55711672)
(-0.0003071511353 0.0002852589623 83.3722613)
(-0.0003450975882 0.000307286329 85.19189542)
(-0.0003791225029 0.0003253523469 87.06309879)
(-0.0004097579004 0.0003401619177 89.01585443)
(-0.0004373648803 0.0003522188453 91.06419628)
(-0.0004621718561 0.0003618929381 93.20891486)
(-0.0004843210095 0.0003694700754 95.44091098)
(-0.0005039099975 0.0003751862599 97.74453157)
(-0.0005210232844 0.0003792487309 100.1004836)
(-0.000535752188 0.0003818476778 102.4881362)
(-0.0005482051982 0.0003831617661 104.8871841)
(-0.0005585110511 0.0003833599523 107.2787524)
(-0.0005668170568 0.0003826013748 109.6460605)
(-0.0005732847786 0.0003810344711 111.9747418)
(-0.0005780846193 0.0003787959567 114.2529001)
(-0.0005813903562 0.0003760100771 116.4710007)
(-0.000583374235 0.0003727881557 118.6216997)
(-0.0005842029083 0.0003692283528 120.6996738)
(-0.0005840342842 0.0003654155202 122.7014735)
(-0.0005830151941 0.0003614206338 124.6255399)
(-0.0005812796317 0.0003572992673 126.4724033)
(-0.0005789472217 0.0003530870109 128.2460898)
(-0.0005761212052 0.0003487930774 129.9550096)
(-0.0005728854742 0.0003443737585 131.6232351)
(-0.0005692973807 0.0003401199734 133.3404895)
(-0.0005653394787 0.0004186377028 137.3628131)
(0.0004428923638 -0.005147736476 21.56778527)
(0.0004299482774 -0.002176280703 34.36704024)
(0.0004001480242 -0.001285950563 40.663859)
(0.0003607317181 -0.00086284866 47.03273641)
(0.0003089482408 -0.0005875086436 52.67369796)
(0.0002456913085 -0.0003826435283 57.56380616)
(0.0001742512744 -0.0002213067033 61.80525752)
(9.887895015e-05 -9.178062088e-05 65.48595372)
(2.388462122e-05 1.219624793e-05 68.6843335)
(-4.715135661e-05 9.50175183e-05 71.46569137)
(-0.0001119456573 0.0001604965124 73.89514197)
(-0.0001696130179 0.0002121358807 76.04816474)
(-0.0002203616291 0.0002530239366 78.01178431)
(-0.0002650210016 0.0002856992821 79.87697926)
(-0.000304611686 0.0003121064856 81.72783811)
(-0.0003400582164 0.000333646471 83.63245438)
(-0.0003720546199 0.0003512824874 85.63799306)
(-0.0004010442361 0.00036566101 87.77005009)
(-0.0004272644719 0.000377220606 90.0351581)
(-0.0004508157243 0.0003862764024 92.42497017)
(-0.0004717284035 0.0003930782305 94.92089214)
(-0.0004900153133 0.0003978461472 97.49835513)
(-0.0005057059164 0.0004007891297 100.1303064)
(-0.000518864228 0.0004021125818 102.7897827)
(-0.0005295942474 0.0004020192895 105.4516205)