/*--------------------------------*- C++ -*----------------------------------*\
| =========                 |                                                 |
| \\      /  F ield         | foam-extend: Open Source CFD                    |
|  \\    /   O peration     | Version:     3.2                                |
|   \\  /    A nd           | Web:         http://www.foam-extend.org         |
|    \\/     M anipulation  | For copyright notice see file Copyright         |
\*---------------------------------------------------------------------------*/
FoamFile
{
    version     2.0;
    format      ascii;
    class       volScalarField;
    location    "0";
    object      epsilon;
}
// * * * * * * * * * * * * * * * * * * * * * * * * * * * * * * * * * * * * * //

dimensions      [0 2 -3 0 0 0 0];

internalField   nonuniform List<scalar> 
18000
(
0.01986957464
0.02091719509
0.02294688344
0.02587471293
0.0296547766
0.03423302261
0.03953813865
0.04546975443
0.05183003721
0.05810472859
0.06214344921
0.06800818423
0.07546758368
0.08406588175
0.09375806499
0.1045125025
0.1164099284
0.1294983987
0.1439540259
0.1598764277
0.1775384263
0.1971448697
0.2189930057
0.243571046
0.2712889384
0.3027816978
0.338865742
0.3806030089
0.4294351961
0.4873072608
0.5569309648
0.6421748137
0.7492887042
0.8875377076
1.073929723
1.33821806
1.744713407
2.441235102
3.801593498
5.143864157
0.06007627533
0.06324378825
0.06938061395
0.07823299725
0.089662137
0.1035046058
0.1195447888
0.1374792131
0.1567097254
0.1756814494
0.1878926465
0.2056248548
0.2281785804
0.2541758014
0.2834804181
0.3159967935
0.3519690297
0.3915424258
0.4352494632
0.4833913389
0.5367929395
0.5960736295
0.6621321465
0.7364446137
0.8202505213
0.9154698564
1.024571083
1.150765005
1.298410638
1.47338862
1.683898049
1.941635471
2.265497642
2.683497792
3.247059832
4.046143817
5.275195111
7.381150063
11.49423587
15.55263285
0.1012290808
0.1065663694
0.1169069776
0.1318233255
0.1510815319
0.1744062202
0.2014340771
0.2316537484
0.2640573398
0.2960248707
0.3166008509
0.3464797862
0.384483023
0.4282885813
0.4776671321
0.532457526
0.5930710775
0.6597526168
0.7333993799
0.8145188866
0.9045010786
1.004389591
1.115698804
1.240916
1.382129731
1.542575193
1.726411772
1.939049699
2.187833959
2.482673482
2.837383821
3.271673766
3.817384525
4.521718653
5.471325914
6.817789836
8.888752658
12.43730627
19.36789399
26.20633052
0.1433502538
0.1509083751
0.1655516851
0.1866746889
0.2139461879
0.246976222
0.2852503041
0.3280443066
0.3739309533
0.4192000955
0.4483376909
0.4906491781
0.5444654687
0.6064984127
0.6764232577
0.7540118005
0.8398465026
0.9342740673
1.038565069
1.153438204
1.280861766
1.422313644
1.579938348
1.757258114
1.957230533
2.18443696
2.444767489
2.745883538
3.09818632
3.515707847
4.018012291
4.63300922
5.405788892
6.403194729
7.747931248
9.654655516
12.5873409
17.612439
27.42682732
37.11072056
0.186462581
0.1962937936
0.2153410523
0.242816761
0.2782901136
0.3212538701
0.3710388125
0.4267030332
0.4863900051
0.5452737593
0.5831744333
0.6382110231
0.7082124649
0.7889017036
0.8798563181
0.9807794736
1.092428806
1.215255288
1.350911618
1.500332639
1.666078604
1.850071876
2.055101924
2.285750285
2.545864044
2.841402389
3.180026851
3.571703001
4.029960202
4.573050567
5.226422156
6.026378288
7.031570037
8.328943859
10.07810743
12.55827554
16.37296071
22.90934789
35.67539559
48.27170206
0.2305893854
0.2427471774
0.2663020143
0.3002799134
0.3441481175
0.3972793472
0.4588460123
0.5276833005
0.6014953335
0.6743140653
0.7211840221
0.7892451492
0.8758125954
0.9755971304
1.088076366
1.212883222
1.350954629
1.502848285
1.670608001
1.855389854
2.060359989
2.287895698
2.541446584
2.826678417
3.148348704
3.513826887
3.932587617
4.416954841
4.983659677
5.655273642
6.46326714
7.452534756
8.695607474
10.30000784
12.46311505
15.53022072
20.24766003
28.33089846
44.1180611
59.69531285
0.2757545386
0.2902936567
0.3184621397
0.3590952325
0.4115558277
0.4750937815
0.5487194052
0.6310397367
0.7193092078
0.8063908215
0.8624411176
0.9438332625
1.047356528
1.166685691
1.301196045
1.450448609
1.615563829
1.797208638
1.997827166
2.218801929
2.463919218
2.736021961
3.039235431
3.380335141
3.765010443
4.20207422
4.702856906
5.28209632
5.959800674
6.762962532
7.72921635
8.912250142
10.39880141
12.31745296
14.90424432
18.57209881
24.21353497
33.88002366
52.75939116
71.38773288
0.3219824739
0.3389589533
0.3718496462
0.4192945361
0.48054971
0.5547392689
0.6407076108
0.7368282554
0.8398953629
0.9415754788
1.007022137
1.102058992
1.222937065
1.362270761
1.519330648
1.693604152
1.886399553
2.098495591
2.332746133
2.590765461
2.876974608
3.194693093
3.548737757
3.947019973
4.396182863
4.906516716
5.491251419
6.167595462
6.958911266
7.896716473
9.024954639
10.40631412
12.14207325
14.38237063
17.40281587
21.68555539
28.27273101
39.55972544
61.60406055
83.3552875
0.3692981999
0.388769394
0.4264934152
0.4809103909
0.551167089
0.636258896
0.7348603929
0.8451060861
0.9633190335
1.079941169
1.155005295
1.264007935
1.402649191
1.562458148
1.742598181
1.942481393
2.163608319
2.406872134
2.675546085
2.971481675
3.299749613
3.664157226
4.070229195
4.527039479
5.042207415
5.627535464
6.298197661
7.073931303
7.981531952
9.057148803
10.35118297
11.93553496
13.92636605
16.49587792
19.96018136
24.87227479
32.42744407
45.37307641
70.65685404
95.60445092
0.4177273132
0.4397519253
0.482423008
0.5439761297
0.623446167
0.7196967632
0.8312286863
0.9559318048
1.089646989
1.221562746
1.306470649
1.429767702
1.586590127
1.767356148
1.971119427
2.19721497
2.447340091
2.722505093
3.02641247
3.361156531
3.732472946
4.14466833
4.603991859
5.120707436
5.703433585
6.36552052
7.124132172
8.001594154
9.028215948
10.24488729
11.70861882
13.50073992
15.75264508
18.65911821
22.57772427
28.13398095
36.67992179
51.32322147
79.92266902
108.1418497
0.467296013
0.4919341277
0.5396686813
0.6085258698
0.6974260457
0.8050980087
0.929864624
1.069365366
1.218947571
1.366516823
1.461500136
1.599427965
1.774859382
1.977075608
2.205018011
2.457942689
2.737748361
3.045565217
3.3855351
3.760000835
4.175378701
4.63648635
5.150314503
5.728345007
6.380219082
7.120871119
7.969501766
8.951085859
10.09952949
11.46057448
13.09799651
15.10277575
17.62189832
20.87326174
25.25686064
31.47243839
41.03246464
57.41337952
89.40651809
120.9742662
0.5180311151
0.5453442306
0.5982614037
0.6745945313
0.7731467464
0.8925088329
1.030821566
1.185468135
1.351290727
1.514881817
1.620177627
1.773080508
1.967558804
2.191729981
2.444420468
2.724805597
3.034990234
3.376227277
3.753108253
4.168230352
4.628706481
5.139877352
5.709492678
6.350280911
7.072930034
7.893995889
8.834763771
9.922920074
11.19605213
12.70486803
14.52006769
16.74250913
19.53513701
23.13950633
27.99903982
34.88945315
45.48742728
63.64684522
99.11353182
134.1086426
0.5699600659
0.6000111278
0.6582328728
0.7422178558
0.8506492326
0.981976523
1.134154128
1.30430292
1.486748053
1.666737991
1.78258896
1.950819273
2.164792641
2.411435391
2.68945631
2.997948062
3.339226512
3.714670152
4.129330777
4.586065927
5.092701527
5.655113658
6.281828887
6.986851602
7.781941183
8.685313074
9.720386275
10.91762254
12.31837707
13.97844108
15.97560165
18.4208271
21.49339615
25.45907798
30.80574529
38.38687375
50.04721974
70.02699073
109.0489615
147.5520844
0.6231109579
0.655964393
0.7196155318
0.8114324263
0.9299754315
1.073549479
1.239918211
1.42593401
1.625392829
1.822167497
1.948821998
2.132740412
2.366667591
2.636310693
2.940258095
3.277517848
3.650621781
4.061076934
4.514406202
5.0137336
5.567614851
6.182474
6.867632751
7.638401452
8.507636088
9.495250762
10.62684838
11.93573137
13.46711146
15.2819826
17.46538581
20.13863762
23.49773514
27.83323152
33.6784954
41.96659224
54.71430878
76.55726758
119.218182
161.311864
0.6775125448
0.7132342957
0.7824425875
0.8822756864
1.011168257
1.167277241
1.348171031
1.550427203
1.767300057
1.981254417
2.11896667
2.318942342
2.573292865
2.866477541
3.196961503
3.563666198
3.969344499
4.415635022
4.908542845
5.451464731
6.053703371
6.722243671
7.46722118
8.305282936
9.250407336
10.32424711
11.55464047
12.97779735
14.64287675
16.61619779
18.99022611
21.89686997
25.54923826
30.26325131
36.61884426
45.63054516
59.49121919
83.24120853
129.6266946
175.3954253
0.7331942567
0.7718518177
0.8467480281
0.9547859608
1.094271633
1.263210512
1.45897115
1.677849848
1.912546508
2.144084816
2.29311502
2.509525794
2.784780244
3.102060451
3.459705404
3.85654791
4.295567088
4.778536224
5.311953927
5.899496123
6.55123005
7.274714674
8.080918536
8.987856823
10.01065675
11.17275059
12.50426445
14.0443842
15.84630899
17.98180843
20.55094747
23.69647532
27.64901536
32.75045196
39.62838253
49.38071463
64.38053519
90.08242944
140.2801302
189.8103872
0.7901862161
0.8318486699
0.9125666414
1.029002476
1.179330516
1.361401192
1.57237851
1.808270879
2.061210757
2.31074678
2.471361258
2.704593869
3.001244136
3.343186867
3.728631938
4.156321429
4.629466029
5.149976862
5.724857683
6.358070151
7.060464041
7.840185884
8.709056819
9.686492371
10.78879561
12.04122023
13.47623406
15.13606893
17.07805923
19.37955328
22.14839419
25.53842723
29.79820235
35.29617898
42.70873831
53.21912943
69.38490179
97.08463127
151.1842521
204.5645479
0.8485192543
0.8932573092
0.9799340337
1.104965381
1.266390921
1.461902398
1.68845446
1.941760849
2.213373226
2.481330469
2.653801811
2.904252094
3.222801644
3.589987233
4.003886586
4.463148923
4.971221951
5.530157876
6.147477485
6.827434892
7.581680825
8.418963207
9.351975835
10.40156752
11.58524487
12.93012584
14.47107509
16.25344211
18.33879381
20.81018849
23.78343047
27.42372214
31.99796191
37.90180954
45.861578
57.14786604
74.50702623
104.251602
162.344959
219.6658891
0.9082249288
0.9561109567
1.04888665
1.182715772
1.355499946
1.564768501
1.807261796
2.078391975
2.369116234
2.655928168
2.840535379
3.108608482
3.449572628
3.842595065
4.28561826
4.777196383
5.32101974
5.91928494
6.580041964
7.307844268
8.115162376
9.011359755
10.0100234
11.13346913
12.4004354
13.83994831
15.48932576
17.39710824
19.62919476
22.27448801
25.45694082
29.35337998
34.24948406
40.56875327
49.08860725
61.16904985
79.74967952
111.587219
173.7682888
235.1225802
0.969335539
1.020443615
1.119461792
1.262295709
1.446705799
1.670055148
1.928864791
2.218238171
2.528524035
2.83463433
3.031662978
3.317773586
3.681679765
4.101147018
4.573979368
5.098633702
5.67904863
6.317568562
7.022785129
7.799558169
8.661197294
9.617696
10.68355549
11.88259313
13.2348082
14.77117983
16.53153692
18.56768599
20.94996017
23.77324401
27.16983059
31.32844464
36.55398684
43.29845292
52.3915718
65.28485623
85.1156978
119.0954505
185.4604212
250.9429832
1.031884144
1.086290086
1.191697639
1.343748243
1.540057818
1.777819298
2.053329228
2.361375091
2.691682864
3.017545629
3.227288004
3.531860557
3.919248619
4.365782962
4.869125906
5.427634768
6.045502305
6.725224204
7.475946492
8.302842598
9.22008097
10.23829995
11.37293648
12.64934478
14.08881463
15.72432419
17.59827236
19.76580864
22.30180453
25.30726725
28.9230264
33.34998458
38.91271691
46.09238518
55.77225847
69.49751173
90.60798397
126.7803583
197.4276814
267.1356563
1.095904582
1.153685992
1.265633269
1.427117438
1.635606505
1.888119247
2.18072244
2.507880169
2.858680987
3.204761019
3.427516287
3.750985214
4.162407712
4.636646059
5.171217544
5.764377566
6.420579008
7.142472399
7.939771204
8.817969824
9.792115749
10.87350735
12.07853931
13.43413888
14.96291672
16.699897
18.69010917
20.99212433
23.68545917
26.87738763
30.71747669
35.41909342
41.32695031
48.95206151
59.23249614
73.80929532
96.22950923
134.6460999
209.6765435
283.7093596
1.161431486
1.222667793
1.341308679
1.512448395
1.733403551
2.001014668
2.311113345
2.65783266
3.029608746
3.396381777
3.632456146
3.975266097
4.411288586
4.913882842
5.480417707
6.109044265
6.804481649
7.56953887
8.414510185
9.34521852
10.37761109
11.52366183
12.80074569
14.23739999
15.85758731
17.69842603
19.80763802
22.24729648
25.10167262
28.48445455
32.55415224
37.53689051
43.79799309
51.87902895
62.77415674
78.22253957
101.9833147
142.6969304
222.2136338
300.673059
1.228500305
1.293272805
1.418764811
1.599787278
1.833501861
2.116566633
2.444572481
2.811313688
3.204558611
3.592511569
3.84221845
4.20482454
4.666025882
5.197643291
5.796893667
6.461821325
7.197417914
8.006654654
8.900420262
9.884873918
10.97688374
12.18911511
13.53994633
15.05956265
16.77331043
18.72045148
20.95146347
23.53200412
26.55121102
30.1293374
34.43404664
39.70452154
46.32718204
54.87487094
66.39915626
82.739632
107.8725132
150.9372053
235.0457347
318.0359317
1.297147322
1.365539226
1.498043563
1.689181333
1.935955587
2.234837654
2.581172047
2.968406281
3.383625224
3.793256494
4.056916675
4.439784726
4.926757406
5.488080913
6.120816629
6.822899589
7.599600369
8.454056217
9.397764297
10.43722796
11.59025788
12.87022719
14.29654112
15.90107164
17.71058144
19.76652623
22.1222043
24.84694224
28.03485854
31.81292602
36.35817687
41.92315913
48.91588538
57.94120815
70.1094557
87.36301621
113.9002904
159.3713821
248.179788
335.8073705
1.367409673
1.43950615
1.579187826
1.780678921
2.040820153
2.355891713
2.72098594
3.129195423
3.566905457
3.998725153
4.276666968
4.680273766
5.193624209
5.785352827
6.452361828
7.192474392
8.011246587
8.911985595
9.906811345
11.00257945
12.21806534
13.56736652
15.07093935
16.7623822
18.66990739
20.83721618
23.32049386
26.1928222
29.5534178
33.53613119
38.32758385
44.19400353
51.56550355
61.07969939
73.90706227
92.09519336
120.0699075
168.0040238
261.622899
353.9969894
1.439325369
1.515213591
1.662241496
1.874329542
2.14815229
2.479794298
2.864089796
3.293768097
3.754498461
4.209028699
4.50158821
4.926421758
5.466770661
6.089619855
6.791708625
7.570745669
8.432579262
9.38069052
10.42783679
11.58123424
12.86064576
14.28091026
15.86355996
17.64396027
19.65180727
21.93310057
24.54698039
27.57037209
31.10771031
35.29988515
40.34333299
46.51828321
54.27746995
64.29204255
77.79403041
96.93872348
126.3847019
176.8398004
275.3823402
372.6146286
1.512933315
1.592702505
1.747249504
1.970183857
2.258010062
2.606612437
3.010561034
3.462213335
3.946505721
4.424280902
4.731802079
5.178361865
5.746344529
6.401046596
7.139040599
7.957918056
8.863826326
9.860424552
10.9611225
12.17350538
13.51834675
15.01124441
16.67483175
18.54628278
20.65681225
23.05477223
25.80232741
28.98033714
32.69857692
37.10514204
42.40651478
48.89725558
57.05325169
67.57997542
81.77246289
101.8962268
132.8480899
185.8834918
289.4655551
391.6703599
1.588273331
1.672014813
1.834257837
2.068293723
2.370452899
2.736414737
3.160478889
3.634622262
4.143031109
4.644598211
4.967433117
5.436230381
6.032497056
6.719801528
7.494545651
8.354201006
9.305221076
10.35144722
11.50695697
12.77971325
14.19152412
15.75876407
17.50519359
19.46983786
21.68546603
24.20283798
27.08721403
30.42348011
34.32687824
38.95287848
44.51824534
51.33220761
59.89435042
70.94527673
85.84451196
106.9703853
139.463568
195.1399905
303.8801624
411.1744921
1.665386175
1.75319342
1.923313565
2.168712214
2.485541631
2.869271417
3.313924464
3.811088147
4.344180939
4.87009981
5.208608792
5.700166805
6.325383043
7.046057088
7.858416098
8.759808898
9.757002293
10.85402414
12.06563547
13.40018582
14.88054203
16.52387363
18.3550947
20.41512513
22.73832508
25.37791889
28.40233534
31.9005817
35.99349516
40.84409403
46.67966707
53.82445654
62.8023031
74.389767
90.01238049
112.1639439
146.2347151
204.6143041
318.6339601
431.1375763
1.744313563
1.836282243
2.014464866
2.271493654
2.603338519
3.00525435
3.47098077
3.991706454
4.55006403
5.100907692
5.455459577
5.970313922
6.625160937
7.379989775
8.230848788
9.174961156
10.21941438
11.36842722
12.63746026
14.03525874
15.58577324
17.306987
19.22499484
21.38265598
23.81595898
26.58065065
29.74840279
33.412441
37.69932927
42.77981182
48.89194926
56.37535062
65.77868287
77.91530964
94.27832322
117.4797122
153.1651942
214.311558
333.7349298
451.5704123
1.825098193
1.921326231
2.10776105
2.376693647
2.723907288
3.144437102
3.631732772
4.176574896
4.760791761
5.33714672
5.708119015
6.24681788
6.931992912
7.72178024
8.612045203
9.599882375
10.6927075
11.89493473
13.22274066
14.68527558
16.30759927
18.10852784
20.11536463
22.37295382
24.91895071
27.81168392
31.1261446
34.9598759
39.44530341
44.76107904
51.15628873
58.98626987
68.82509991
81.52381193
98.64464797
122.920566
160.2587546
224.2369982
349.1912408
472.484054
1.907783768
2.008371391
2.203252588
2.484369103
2.847313163
3.286894965
3.796267433
4.36579348
4.976478131
5.578944694
5.966723787
6.529828256
7.246044957
8.071613384
9.002211557
10.03480242
11.1771377
12.4338315
13.82179332
15.35058798
17.0464106
18.92892974
21.02668573
23.38655438
26.04789697
29.07168466
32.53630607
36.54372353
41.2323621
46.78896749
53.47391041
61.6586267
71.94320225
85.21722595
103.1137168
128.4894487
167.5192337
234.3959941
365.0112545
493.8898149
1.992415019
2.097464812
2.30099114
2.594578272
2.973622905
3.432705008
3.964673762
4.559464571
5.197239821
5.826432421
6.231413794
6.819498156
7.567486966
8.429678458
9.401558924
10.47995658
11.67296702
12.98540905
14.43494229
16.03155585
17.80260691
19.76863654
21.95945114
24.42400599
27.20340848
30.3613345
33.97965009
38.1648407
43.06147211
48.86457423
55.84606809
64.39386682
75.13467673
88.99754977
107.6879474
134.1893728
174.9505592
244.7940415
381.2035293
515.7992753
2.07903773
2.188654693
2.40102958
2.707380777
3.102904844
3.58194611
4.137042865
4.75769294
5.42319626
6.079743787
6.502332227
7.115984286
7.896492836
8.796169171
9.810303344
10.93558568
12.18046372
13.5499658
15.06251929
16.7285476
18.5765973
20.6281025
22.91416548
25.48586991
28.38611036
31.68133113
35.45695746
39.82410443
44.93362295
50.98902212
58.27404508
67.19346995
78.40124986
92.86682848
112.3698143
140.023422
182.5567515
255.4367657
397.7768249
538.2242877
2.167698761
2.281990365
2.503422026
2.822837639
3.235228919
3.734699008
4.313467989
4.960585826
5.654469684
6.339015829
6.779625648
7.419447037
8.233240549
9.171283784
10.22866594
11.40193619
12.69990234
14.12780714
15.70486381
17.44194028
19.36880047
21.50779257
23.89134522
26.57272056
29.59664242
33.03238862
36.96902739
41.52241232
46.84982741
53.16346044
60.75915484
70.05895059
81.7446888
96.82715528
117.1618503
145.9947524
190.3419252
266.3299241
414.7401071
561.1769835
2.258446078
2.37752232
2.608223872
2.941011319
3.370666715
3.891046337
4.494044576
5.168252989
5.891185209
6.604388806
7.063444066
7.730050576
8.57791228
9.555225227
10.65687303
11.8792604
13.23156388
14.71924567
16.36232336
18.17211981
20.17964499
22.40818265
24.891519
27.68514592
30.83565954
34.41523787
38.51667787
43.26068313
48.81112211
55.38906551
63.30274178
72.99185892
85.16680227
100.8806726
122.0666478
152.1065942
198.3102921
277.4794095
432.1025527
584.6697797
2.351328771
2.47530224
2.715491812
3.061965747
3.5092915
4.051072679
4.678870314
5.380806772
6.133470891
6.876006281
7.353941021
8.047962934
8.93069449
9.948201205
11.09515627
12.36781654
13.77573595
15.32460136
17.0352536
18.91948122
21.00956951
23.32975983
25.91522789
28.82374779
32.10383199
35.83062699
40.10074614
45.03985723
50.81856809
57.66704135
65.90618191
75.99378158
88.66944157
105.0295733
127.0868602
158.3622539
206.4661627
288.8912538
449.8735543
608.7153854
2.446397089
2.575383021
2.825283876
3.185766356
3.651178269
4.214864604
4.868045191
5.598362163
6.381457803
7.154015193
7.651273667
8.373356094
9.291778024
10.35042431
11.54375277
12.86786891
14.33271295
15.94420169
17.72401857
19.6844288
21.85902301
24.27302265
26.9630257
29.98914212
33.40184584
37.27932165
41.72208916
46.86089711
52.87325132
59.99862028
68.57088365
79.06634254
92.25450155
109.2761019
132.2252033
164.7651157
214.8139493
300.5716304
468.0627257
633.3268088
2.543702462
2.677818806
2.937659459
3.312480119
3.796403778
4.38251072
5.061671547
5.821036854
6.635280101
7.438565938
7.955602853
8.706406088
9.661358224
10.76211213
12.0029052
13.37968802
14.90279619
16.57838185
18.42899089
20.46737638
22.72846501
25.23848142
28.03547926
31.18195938
34.73040329
38.76210558
43.38158404
48.72478793
54.97628335
62.38506365
71.29828854
82.21120401
95.92392166
113.6225557
137.4844569
171.3186434
223.3581679
312.5268583
486.679907
658.5173641
2.643297529
2.782665009
3.052679355
3.442175587
3.945046591
4.554101721
5.259854128
6.048951309
6.895075097
7.729812453
8.267093216
9.047293088
10.03963502
11.18348739
12.47286195
13.90355076
15.48629407
17.22748491
19.15055193
21.26874752
23.61836587
26.22665842
29.13316874
32.40284484
36.09022304
40.27978093
45.08012853
50.63253799
57.12880186
64.82766247
74.08987206
85.43006727
99.67968696
118.071286
142.8674661
178.0263822
232.1034406
324.7634048
505.7351695
684.3006789
2.745236171
2.88997835
3.170405787
3.574922922
4.097187122
4.729730434
5.462700148
6.282228823
7.160983334
8.027912296
8.585913266
9.396201509
10.42681306
11.61477804
12.95387727
14.43974052
16.08352226
17.89186203
19.88909204
22.08897573
24.529207
27.23808823
30.25668799
33.65245898
37.48204075
41.83316873
46.8186415
52.58517937
59.33197134
67.32773814
76.94714439
88.72467368
103.5238293
122.6246994
148.377143
184.8919611
241.0544986
337.2878898
525.2388218
710.6907015
2.849573533
2.999816885
3.290902442
3.710793938
4.252907676
4.90949187
5.670319342
6.520995597
7.433148665
8.333026734
8.912235479
9.753320101
10.8231018
12.0562174
13.44621137
14.98854738
16.69480383
18.57187263
20.64501076
22.92850476
25.46148117
28.27331802
31.40664479
34.93147782
38.90660935
43.42310934
48.59806347
54.5837684
61.58698366
69.88664315
79.87165127
92.09680556
107.4584282
127.2852593
154.0164683
191.919094
250.2161841
350.1070887
545.2014151
737.7017083
2.956366059
3.112240031
3.414234506
3.849862137
4.412292492
5.093483275
5.882824028
6.765380795
7.711718323
8.645320825
9.246236385
10.11884206
11.22871561
12.50804428
13.95013059
15.55026822
17.32046948
19.26788457
21.41871701
23.78778877
26.41569269
29.33290783
32.58366125
36.24059328
40.3646995
45.05046287
50.41935705
56.62938627
63.89505871
72.50576179
82.86497476
95.54828713
111.4856122
132.0554869
159.7884926
199.1115825
259.5934534
363.2279365
565.6337485
765.3483116
3.065671523
3.22730861
3.5404687
3.992202753
4.575427797
5.281804187
6.100329166
7.015516628
7.99684301
8.964963516
9.588096674
10.49296512
11.64387393
12.97050311
14.46590755
16.12520692
17.96085768
19.98027438
22.21062936
24.6672926
27.39235778
30.41743086
33.7883741
37.58051357
41.8571
46.71610969
52.28350752
58.72313961
66.25744512
75.18651098
85.92873423
99.08098559
115.60756
136.9379629
165.6963386
206.4733176
269.1913794
376.6575312
586.5468756
793.6454678
3.177549056
3.34508487
3.669673314
4.13789279
4.742401842
5.474556483
6.322952423
7.271538412
8.288676973
9.292127727
9.938001286
10.87589168
12.06880135
13.44384407
14.99382127
16.71367453
18.61631487
20.70942745
23.02117622
25.56749206
28.39200481
31.52747384
35.02143509
38.95196355
43.38461822
48.42095089
54.19152337
60.86616112
68.67542091
77.93034095
89.06458709
102.6968121
119.8265014
141.9353285
171.7432022
214.0082819
279.0151545
390.4031381
607.95211
822.6084851
3.292059182
3.465632525
3.801918244
4.287011062
4.913304957
5.671844437
6.550814233
7.533584651
8.587378087
9.626990445
10.29613951
11.2678289
12.50372775
13.92832322
15.53415734
17.31598937
19.28719564
21.45573824
23.85079607
26.48887413
29.41517455
32.66363725
36.28351126
40.35568515
44.9480805
50.16590875
56.14443678
63.05961011
71.15029414
80.73873603
92.27422977
106.3977226
124.1447189
147.0502873
177.9323547
221.7205516
289.070093
404.4721931
629.8610315
852.2530317
3.409263848
3.58901679
3.937275032
4.439638239
5.088229596
5.873774777
6.784037863
7.801797105
8.893107943
9.969732825
10.66270509
11.66898879
12.9488884
14.42420266
16.08720806
17.9324773
19.97386292
22.21961048
24.69993773
27.43193726
30.46242052
33.82653576
37.57528536
41.79243775
46.54833264
51.95192724
58.14330423
65.30467319
73.68340366
83.61321551
95.55939862
110.1857194
128.5645484
152.2856062
184.2671443
229.6142989
299.3616345
418.8723073
652.2854922
882.5951447
3.529226459
3.715304413
4.075816904
4.595856889
5.267270391
6.080456745
7.022749484
8.076320872
9.206031935
10.32054028
11.03789634
12.07958839
13.40452415
14.93175065
16.65327264
18.56347182
20.67668819
23.00145742
25.56906055
28.39719163
31.53430925
35.01679845
38.89745624
43.26299861
48.18624035
53.77997257
60.18920708
67.6025649
76.27611984
86.55533444
98.92187085
114.0628516
133.088381
157.6441176
190.750998
237.6937941
309.8953465
433.6112709
675.2376233
913.6512387
3.652011913
3.844563713
4.217618807
4.755751524
5.450524199
6.292002151
7.267078232
8.357304464
9.526319348
10.6796026
11.42191622
12.49984982
13.87088147
15.45124177
17.23265729
19.20931429
21.39605164
23.80170202
26.45863473
29.38515942
32.63142062
36.23506924
40.25073914
44.76816327
49.8626897
55.65103367
62.28325211
69.95452835
78.92984527
89.56668443
102.3634655
118.0312167
137.718664
163.1287202
197.3874233
245.963408
320.6769275
448.6970574
698.7298416
945.4381143
3.777686635
3.976864616
4.362757454
4.919408643
5.638090156
6.508525436
7.517156286
8.644899887
9.854143451
11.04711402
11.81497247
12.93000043
14.34821265
15.98295704
17.82567545
19.87035409
22.13234246
24.62077718
27.36914149
30.39637511
33.75434815
37.48200718
41.63586618
46.30874599
51.57858762
57.56612276
64.42657216
72.3618359
81.64601557
92.64889456
105.8860444
122.0929614
142.4579023
168.742381
204.1800105
254.4276145
331.7122101
464.1378279
722.7748558
977.9729675
3.899144001
4.104725804
4.503025582
5.077573805
5.819361831
6.717782698
7.758842296
8.922844268
10.17096653
11.4022926
12.19483867
13.34571617
14.80952569
16.49682917
18.39879329
20.50921091
22.84392505
25.41236607
28.24909374
31.37365672
34.83959281
38.68710076
42.97451153
47.7976303
53.23690395
59.41694586
66.49796732
74.68835975
84.27103745
95.6276728
109.2904136
126.0184034
147.0381027
174.1676604
210.7446541
262.6077816
342.377174
479.0604416
746.0129745
1009.416026
3.899144001
4.104725804
4.503025582
5.077573805
5.819361831
6.717782698
7.758842296
8.922844268
10.17096653
11.4022926
12.19483867
13.34571617
14.80952569
16.49682917
18.39879329
20.50921091
22.84392505
25.41236607
28.24909374
31.37365672
34.83959281
38.68710076
42.97451153
47.7976303
53.23690395
59.41694586
66.49796732
74.68835975
84.27103745
95.6276728
109.2904136
126.0184034
147.0381027
174.1676604
210.7446541
262.6077816
342.377174
479.0604416
746.0129745
1009.416026
3.899144001
4.104725804
4.503025582
5.077573805
5.819361831
6.717782698
7.758842296
8.922844268
10.17096653
11.4022926
12.19483867
13.34571617
14.80952569
16.49682917
18.39879329
20.50921091
22.84392505
25.41236607
28.24909374
31.37365672
34.83959281
38.68710076
42.97451153
47.7976303
53.23690395
59.41694586
66.49796732
74.68835975
84.27103745
95.6276728
109.2904136
126.0184034
147.0381027
174.1676604
210.7446541
262.6077816
342.377174
479.0604416
746.0129745
1009.416026
3.899144001
4.104725804
4.503025582
5.077573805
5.819361831
6.717782698
7.758842296
8.922844268
10.17096653
11.4022926
12.19483867
13.34571617
14.80952569
16.49682917
18.39879329
20.50921091
22.84392505
25.41236607
28.24909374
31.37365672
34.83959281
38.68710076
42.97451153
47.7976303
53.23690395
59.41694586
66.49796732
74.68835975
84.27103745
95.6276728
109.2904136
126.0184034
147.0381027
174.1676604
210.7446541
262.6077816
342.377174
479.0604416
746.0129745
1009.416026
3.899144001
4.104725804
4.503025582
5.077573805
5.819361831
6.717782698
7.758842296
8.922844268
10.17096653
11.4022926
12.19483867
13.34571617
14.80952569
16.49682917
18.39879329
20.50921091
22.84392505
25.41236607
28.24909374
31.37365672
34.83959281
38.68710076
42.97451153
47.7976303
53.23690395
59.41694586
66.49796732
74.68835975
84.27103745
95.6276728
109.2904136
126.0184034
147.0381027
174.1676604
210.7446541
262.6077816
342.377174
479.0604416
746.0129745
1009.416026
3.899144001
4.104725804
4.503025582
5.077573805
5.819361831
6.717782698
7.758842296
8.922844268
10.17096653
11.4022926
12.19483867
13.34571617
14.80952569
16.49682917
18.39879329
20.50921091
22.84392505
25.41236607
28.24909374
31.37365672
34.83959281
38.68710076
42.97451153
47.7976303
53.23690395
59.41694586
66.49796732
74.68835975
84.27103745
95.6276728
109.2904136
126.0184034
147.0381027
174.1676604
210.7446541
262.6077816
342.377174
479.0604416
746.0129745
1009.416026
3.899144001
4.104725804
4.503025582
5.077573805
5.819361831
6.717782698
7.758842296
8.922844268
10.17096653
11.4022926
12.19483867
13.34571617
14.80952569
16.49682917
18.39879329
20.50921091
22.84392505
25.41236607
28.24909374
31.37365672
34.83959281
38.68710076
42.97451153
47.7976303
53.23690395
59.41694586
66.49796732
74.68835975
84.27103745
95.6276728
109.2904136
126.0184034
147.0381027
174.1676604
210.7446541
262.6077816
342.377174
479.0604416
746.0129745
1009.416026
3.899144001
4.104725804
4.503025582
5.077573805
5.819361831
6.717782698
7.758842296
8.922844268
10.17096653
11.4022926
12.19483867
13.34571617
14.80952569
16.49682917
18.39879329
20.50921091
22.84392505
25.41236607
28.24909374
31.37365672
34.83959281
38.68710076
42.97451153
47.7976303
53.23690395
59.41694586
66.49796732
74.68835975
84.27103745
95.6276728
109.2904136
126.0184034
147.0381027
174.1676604
210.7446541
262.6077816
342.377174
479.0604416
746.0129745
1009.416026
3.899144001
4.104725804
4.503025582
5.077573805
5.819361831
6.717782698
7.758842296
8.922844268
10.17096653
11.4022926
12.19483867
13.34571617
14.80952569
16.49682917
18.39879329
20.50921091
22.84392505
25.41236607
28.24909374
31.37365672
34.83959281
38.68710076
42.97451153
47.7976303
53.23690395
59.41694586
66.49796732
74.68835975
84.27103745
95.6276728
109.2904136
126.0184034
147.0381027
174.1676604
210.7446541
262.6077816
342.377174
479.0604416
746.0129745
1009.416026
3.899144001
4.104725804
4.503025582
5.077573805
5.819361831
6.717782698
7.758842296
8.922844268
10.17096653
11.4022926
12.19483867
13.34571617
14.80952569
16.49682917
18.39879329
20.50921091
22.84392505
25.41236607
28.24909374
31.37365672
34.83959281
38.68710076
42.97451153
47.7976303
53.23690395
59.41694586
66.49796732
74.68835975
84.27103745
95.6276728