/*--------------------------------*- C++ -*----------------------------------*\
| =========                 |                                                 |
| \\      /  F ield         | foam-extend: Open Source CFD                    |
|  \\    /   O peration     | Version:     3.2                                |
|   \\  /    A nd           | Web:         http://www.foam-extend.org         |
|    \\/     M anipulation  | For copyright notice see file Copyright         |
\*---------------------------------------------------------------------------*/
FoamFile
{
    version     2.0;
    format      ascii;
    class       volScalarField;
    location    "0";
    object      k;
}
// * * * * * * * * * * * * * * * * * * * * * * * * * * * * * * * * * * * * * //

dimensions      [0 2 -2 0 0 0 0];

internalField   nonuniform List<scalar> 
18000
(
0.001462436835
0.001497030134
0.00156171109
0.001650142711
0.00175685336
0.001876527912
0.002004314157
0.002135850469
0.002266399376
0.002387218617
0.002461310497
0.00256145206
0.002677758872
0.002799412523
0.002923213361
0.003047118742
0.003170170983
0.003291628225
0.003411345266
0.003529119809
0.00364519909
0.003759733285
0.003873047749
0.003985756032
0.004098306654
0.004211443719
0.004326089447
0.004443376921
0.004564841986
0.004692465327
0.004828951346
0.004978097231
0.005145905564
0.005340980781
0.005578597207
0.005883397941
0.006302438529
0.006914243729
0.007694872824
0.004720996725
0.004421723139
0.004526317052
0.004721881929
0.004989257677
0.005311900634
0.005673740356
0.006060106033
0.006457810153
0.006852528823
0.007217829544
0.007441848644
0.007744629764
0.008096287019
0.008464110606
0.008838426282
0.009213058045
0.009585110314
0.009952340051
0.01031430824
0.01067040322
0.01102137253
0.01136767022
0.01171028002
0.01205105701
0.01239135731
0.01273343073
0.01308006565
0.01343468797
0.01380194136
0.01418781449
0.0146004842
0.01505143141
0.01555880511
0.01614862108
0.01686706172
0.01778863619
0.01905561841
0.02090543041
0.02326568669
0.01427408005
0.007450644475
0.007626886188
0.007956414818
0.008406945431
0.008950601805
0.00956030509
0.01021133484
0.01088146997
0.01154657458
0.01216210968
0.01253958394
0.01304977294
0.01364231867
0.01426210483
0.01489283021
0.0155240882
0.01615099972
0.01676978523
0.01737970499
0.01797972833
0.01857111487
0.01915462969
0.01973193038
0.02030614276
0.02087955192
0.02145594881
0.02204003186
0.02263757375
0.02325639912
0.02390659892
0.02460195121
0.02536180144
0.02621673083
0.0272105762
0.02842115533
0.02997401687
0.03210889364
0.03522584401
0.03920289773
0.0240519572
0.01055083942
0.01080041488
0.01126705957
0.01190505487
0.01267492533
0.01353832466
0.01446024629
0.01540922301
0.01635107603
0.01722273379
0.01775727416
0.01847975155
0.01931885411
0.02019653177
0.02108970044
0.02198362334
0.02287139122
0.02374765186
0.02461135774
0.02546104933
0.02629851036
0.02712482427
0.02794233836
0.02875547911
0.02956748242
0.03038371665
0.03121083522
0.03205701283
0.03293332992
0.03385407627
0.03483876295
0.035914785
0.03712544842
0.03853283042
0.04024712857
0.04244613199
0.04546932577
0.04988323157
0.05551512762
0.03405991777
0.01372398513
0.01404861995
0.01465560717
0.01548547839
0.01648688599
0.0176099511
0.01880913898
0.02004351871
0.02126863231
0.02240243954
0.02309774196
0.0240375031
0.02512896423
0.02627060184
0.02743238937
0.02859515795
0.02974992039
0.03088971483
0.03201317866
0.03311841346
0.03420773936
0.03528256568
0.03634594563
0.03740363698
0.0384598488
0.03952156399
0.04059743696
0.04169810094
0.0428379688
0.04403562793
0.04531645733
0.04671609105
0.04829085929
0.05012150886
0.05235137904
0.05521172873
0.05914414253
0.06488552244
0.07221120094
0.04430337589
0.01697179819
0.0173732586
0.01812389077
0.01915015295
0.02038854599
0.02177738707
0.02326036556
0.02478686413
0.02630190372
0.02770402907
0.02856387643
0.02972603424
0.03107579219
0.032487601
0.03392432825
0.03536226872
0.03679030839
0.03819983784
0.03958917201
0.04095596319
0.04230308061
0.04363226708
0.04494729838
0.04625529485
0.04756146166
0.04887443422
0.05020491504
0.05156605372
0.05297567396
0.05445676192
0.05604070258
0.05777156288
0.05971900369
0.06198288075
0.06474045491
0.06827771302
0.07314074171
0.08024083256
0.08930014995
0.05478787306
0.02029603562
0.0207761294
0.02167378662
0.02290106104
0.02438201603
0.02604288707
0.02781633405
0.02964182531
0.03145361315
0.03313037042
0.03415863463
0.03554842232
0.03716255508
0.0388508925
0.04056902908
0.04228861653
0.04399636391
0.04568197551
0.04734343622
0.04897793847
0.05058891351
0.05217844548
0.05375104974
0.05531524127
0.05687724476
0.05844738704
0.06003846689
0.0616662095
0.06335192968
0.06512311583
0.06701730027
0.06908718125
0.071416064
0.07412336284
0.07742105839
0.08165115327
0.08746669516
0.09595746881
0.1067912194
0.06551908115
0.02369849575
0.02425907323
0.02530721515
0.02674023183
0.0284694565
0.03040875863
0.03247950913
0.03461102869
0.03672654756
0.03868439913
0.0398850432
0.04150781714
0.04339254572
0.04536391874
0.04737008651
0.04937794837
0.05137198528
0.05334017552
0.05528016618
0.05718867903
0.05906972052
0.06092572419
0.06276196237
0.06458837749
0.06641223776
0.06824560122
0.07010341226
0.07200403227
0.07397234929
0.07604045995
0.07825218853
0.08066906769
0.0833883681
0.08654952288
0.09040004942
0.09533928422
0.1021297529
0.1120439336
0.1246938716
0.07650280553
0.02718101924
0.02782397428
0.02902614197
0.03066974223
0.03265307863
0.03487736362
0.03725241348
0.03969716251
0.04212355951
0.04436911981
0.04574620002
0.04760744262
0.04976913441
0.05203020315
0.05433117978
0.05663409944
0.05892116256
0.06117858081
0.06340365552
0.06559262671
0.06775008959
0.06987883531
0.07198491098
0.07407972008
0.07617159889
0.0782743774
0.08040519609
0.08258511457
0.08484267824
0.08721470033
0.08975144518
0.09252348775
0.09564239274
0.09926808316
0.1036844494
0.1093495109
0.1171378474
0.1285089293
0.1430177914
0.08774498817
0.03074549007
0.03147276109
0.03283257893
0.03469171803
0.03693514566
0.03945111946
0.04213762915
0.04490297825
0.04764756866
0.05018760777
0.05174527585
0.05385059851
0.05629577074
0.05885335205
0.06145607468
0.06406099516
0.06664797969
0.06920143179
0.07171829886
0.07419432787
0.07663471661
0.07904262229
0.081424885
0.08379440366
0.08616060776
0.08853914093
0.09094939141
0.09341518056
0.09596879713
0.09865188201
0.1015212911
0.1046568544
0.1081847671
0.1122859242
0.1172814448
0.1236894125
0.1324990978
0.1453613632
0.1617728919
0.09925171086
0.03439383654
0.03520740759
0.03672858524
0.03880833503
0.0413179741
0.04413250044
0.04713779894
0.05023129215
0.05330156339
0.0561430107
0.05788551606
0.06024066225
0.0629759855
0.06583705661
0.06874862565
0.07166265333
0.07455661673
0.07741306864
0.08022859425
0.08299843584
0.08572840799
0.08842204254
0.09108699125
0.09373768367
0.09638466822
0.09904544483
0.1017417024
0.1045000891
0.107356725
0.1103581923
0.1135680935
0.1170757316
0.1210222764
0.1256100883
0.1311983915
0.1383667467
0.148221814
0.162610352
0.180969319
0.1110291985
0.03812803233
0.03902993414
0.04071626857
0.04302182023
0.04580393497
0.0489240391
0.05225562784
0.05568498673
0.0590886024
0.06223855035
0.06417024241
0.06678109071
0.06981339254
0.07298509488
0.07621277779
0.07944318628
0.08265135208
0.08581793371
0.08893914559
0.09200971347
0.09503608322
0.09802217013
0.1009764567
0.1039149392
0.1068493113
0.1097989728
0.1127879676
0.1158458368
0.1190126224
0.122339964
0.1258983695
0.1297868377
0.1341618653
0.1392477836
0.1454428181
0.1533894535
0.1643145018
0.1802652273
0.2006174576
0.1230838224
0.04195009757
0.04294240865
0.04479778616
0.04733445305
0.05039545509
0.05382832755
0.05749388448
0.06126701231
0.06501181635
0.06847752427
0.07060285478
0.07347542213
0.07681169075
0.08030133379
0.08385256905
0.08740680312
0.09093656482
0.09442057383
0.09785466511
0.1012330357
0.1045627776
0.1078481985
0.1110986314
0.114331676
0.1175601981
0.1208055423
0.1240941626
0.1274585616
0.130942795
0.134603679
0.1385187895
0.1427970491
0.1476106423
0.1532063878
0.1600224307
0.16876566
0.180785867
0.1983355397
0.2207279371
0.135422104
0.0458620999
0.04694694767
0.04897534602
0.05174856652
0.05509501836
0.05884801893
0.06285540264
0.06698038865
0.07107440958
0.07486330763
0.07718683309
0.08032727802
0.08397466607
0.08778973128
0.09167213241
0.095557812
0.09941673708
0.1032256429
0.1069799759
0.1106733921
0.1143136447
0.1179054434
0.1214589913
0.1249935292
0.128523123
0.1320711076
0.1356664039
0.1393445456
0.1431536967
0.1471559717
0.1514361808
0.156113404
0.1613758826
0.1674934522
0.1749451164
0.1845036843
0.1976448202
0.2168310651
0.2413116366
0.148050718
0.04986615565
0.0510457176
0.05325120814
0.05626654859
0.05990516717
0.06398582878
0.06834308282
0.07282820658
0.07727966182
0.081399355
0.08392573915
0.08734036508
0.09130619352
0.09545433841
0.09967569809
0.1039006225
0.1080964565
0.1122379042
0.1163200146
0.1203358897
0.1242939598
0.1281993456
0.132063141
0.1359062668
0.1397440167
0.1436017631
0.1475109519
0.151510219
0.1556519335
0.1600036328
0.1646575316
0.1697431064
0.1754650332
0.1821167058
0.1902189482
0.2006120404
0.2149004819
0.2357618091
0.2623796917
0.1609764961
0.05396443092
0.05524093576
0.05762768567
0.0608908434
0.06482850369
0.06924453654
0.07395989371
0.07881362965
0.08363092999
0.08808920224
0.09082321855
0.09451847724
0.09881023931
0.1032993016
0.1078675958
0.1124397478
0.1169804185
0.1214622332
0.1258798339
0.1302257558
0.1345091219
0.1387354737
0.1429168171
0.1470757922
0.1512289495
0.1554037468
0.1596342143
0.1639621631
0.1684442665
0.1731536124
0.1781899943
0.1836935296
0.1898857159
0.1970840596
0.2058521889
0.2170994426
0.2325621869
0.2551380129
0.2839434996
0.174206431
0.0581591428
0.05953487171
0.06210714619
0.0656239526
0.06986769135
0.07462698708
0.07970887391
0.08493989584
0.09013164999
0.09493646842
0.0978830027
0.1018654977
0.106490863
0.1113288648
0.1162522573
0.1211798074
0.1260734293
0.1309036201
0.1356646056
0.1403483405
0.1449646572
0.1495195278
0.1540258914
0.1585081479
0.1629841346
0.1674834432
0.1720427494
0.1767071142
0.1815376162
0.1866130246
0.1920408897
0.1979722206
0.2046457319
0.2124036105
0.2218532957
0.2339748103
0.2506394899
0.2749701585
0.306014726
0.1877476798
0.06245256052
0.06392984833
0.06669201297
0.07046843667
0.07502545623
0.08013609215
0.08559313346
0.0912103193
0.09678533855
0.1019448577
0.1051089107
0.1093854011
0.1143522195
0.1195473717
0.1248342184
0.1301255296
0.1353804078
0.1405671725
0.1456796229
0.15070912
0.1556662218
0.1605573416
0.1653963735
0.1702095187
0.1750159311
0.1798473872
0.1847432699
0.189751967
0.1949390658
0.2003891503
0.2062177107
0.2125869036
0.2197530662
0.228083646
0.2382309248
0.2512472725
0.2691421702
0.2952689747
0.3286053108
0.201607568
0.06684700676
0.06842824326
0.07138476637
0.07542691642
0.0803045886
0.08577483212
0.09161585568
0.09762829227
0.1035955952
0.1091181617
0.1125048518
0.1170822555
0.1223985618
0.1279592686
0.1336181219
0.1392817538
0.1449063892
0.1504581182
0.1559303039
0.1613136992
0.1666196053
0.1718548865
0.1770344147
0.1821862346
0.1873308481
0.1925022675
0.1977426468
0.2031037785
0.2086558652
0.2144894425
0.2207281269
0.2275454852
0.2352158916
0.2441326489
0.2549939363
0.2689261734
0.2880802376
0.3160454429
0.3517274752
0.2157935935
0.07134485883
0.07303249004
0.07618794507
0.08050207428
0.08570794437
0.09154625741
0.09778029872
0.1041972867
0.1105661042
0.1164602608
0.120074827
0.1249602247
0.1306342428
0.136569106
0.1426087196
0.1486534333
0.1546565266
0.1605818079
0.1664221938
0.172167815
0.1778307331
0.1834182742
0.1889463109
0.194444775
0.1999355477
0.20545493
0.2110479123
0.2167697719
0.2226954349
0.2289215289
0.235579988
0.2428560575
0.251042573
0.2605593012
0.2721513987
0.287021077
0.3074639371
0.3373108027
0.3753937278
0.2303134308
0.07594854993
0.07774507943
0.08110414746
0.08569665577
0.09123844661
0.09745349022
0.1040897974
0.1109208563
0.1177006364
0.123975127
0.1278229314
0.1330235706
0.1390637178
0.1453815417
0.1518108752
0.1582456379
0.1646360947
0.1709437184
0.1771609686
0.1832773393
0.1893056701
0.1952537602
0.2011385062
0.2069917713
0.2128368488
0.2187123819
0.2246662642
0.23075734
0.2370653701
0.2436932171
0.2507813285
0.2585269032
0.2672416725
0.2773724894
0.2897125936
0.3055417722
0.3273037548
0.359076558
0.3996168715
0.2451749346
0.08066057059
0.08256856086
0.0861360331
0.09101347107
0.09689908721
0.1034997263
0.110547765
0.1178026383
0.1250030514
0.1316668256
0.1357533565
0.1412766553
0.1476915469
0.154401343
0.161229567
0.168063557
0.1748504922
0.1815494553
0.1881524378
0.194648282
0.2010506242
0.2073677473
0.2136175962
0.2198340113
0.2260417306
0.2322817952
0.2386050699
0.2450740498
0.2517734444
0.2588124982
0.2663403721
0.2745664998
0.2838219532
0.294581309
0.3076870214
0.3244982782
0.3476104236
0.3813544838
0.4244100105
0.2603861448
0.0854834699
0.08750554373
0.09128632415
0.09645539646
0.1026929285
0.1096882364
0.1171576952
0.1248463557
0.1324772997
0.1395395178
0.1438703927
0.1497239435
0.1565223977
0.1636333894
0.1708698901
0.1781125017
0.1853052449
0.1924047559
0.1994025474
0.2062867945
0.213071949
0.2197667888
0.2263903321
0.2329784423
0.2395573368
0.2461705106
0.2528718699
0.2597276465
0.2668276148
0.2742875514
0.2822655359
0.2909835246
0.3007923849
0.3121950698
0.3260844058
0.3439008501
0.3683949292
0.4041566319
0.4497865574
0.2759552903
0.09041985699
0.09255869888
0.09655780684
0.1020253759
0.1086231047
0.1160223685
0.1239231638
0.132055819
0.1401274247
0.1475974625
0.1521784311
0.158370005
0.1655610474
0.1730826753
0.18073706
0.1883979084
0.1960060086
0.2035154929
0.2109173837
0.2181991733
0.2253761479
0.2324575926
0.2394636235
0.2464321752
0.2533909791
0.2603860417
0.2674743823
0.2747260573
0.2822360253
0.2901267484
0.2985654352
0.3077868588
0.3181621483
0.3302233004
0.3449146996
0.3637599845
0.3896685154
0.427495338
0.4757602404
0.2918907938
0.09547240229
0.09773075992
0.1019533329
0.1077264227
0.1146928241
0.1225055492
0.1308478308
0.1394349283
0.1479575649
0.1558450188
0.1606819661
0.1672195172
0.1748123858
0.1827543126
0.1908364145
0.1989253412
0.2069585723
0.2148876769
0.2227031758
0.2303918624
0.2379698771
0.2454470238
0.2528445427
0.2602024882
0.2675501411
0.2749360788
0.2824205067
0.290077396
0.2980070113
0.306338658
0.3152488877
0.3249855926
0.3359406399
0.3486757537
0.3641880893
0.3840864245
0.4114426908
0.4513832276
0.5023451107
0.3082012759
0.1006438391
0.1030245248
0.1074758212
0.1135616209
0.1209053702
0.1291412858
0.1379354423
0.1469876756
0.1559719564
0.1642866486
0.1693855979
0.1762772674
0.1842814176
0.1926535333
0.201173417
0.2097004952
0.2181688609
0.2265274599
0.2347662996
0.2428714579
0.2508599497
0.2587421097
0.2665403286
0.2742968306
0.2820424826
0.2898284931
0.2977183287
0.3057899674
0.3141491048
0.3229320502
0.3323249188
0.3425890301
0.3541374775
0.367562412
0.3839150016
0.4048911664
0.4337292348
0.4758332236
0.52955555
0.3248955603
0.1059369652
0.1084428574
0.1131282592
0.1195341273
0.1272641038
0.135933168
0.1451898325
0.1547181467
0.1641749346
0.1729269185
0.1782940351
0.1855481557
0.1939732654
0.2027856929
0.2117536598
0.2207291996
0.2296429391
0.238441139
0.2471132811
0.2556447111
0.2640533388
0.2723500425
0.2805583904
0.2887228274
0.2968758437
0.3050713412
0.3133761241
0.3218722716
0.3306710382
0.339915902
0.3498027664
0.3606066945
0.3727625054
0.3868934927
0.4041061083
0.4261854652
0.4565402039
0.500858553
0.5574062789
0.3419826782
0.1113546439
0.113988689
0.118913705
0.1256471729
0.1337724649
0.1428848702
0.1526149259
0.1626305237
0.1725709374
0.1817705029
0.187412097
0.1950371976
0.2038931723
0.2131562725
0.2225828665
0.2320174207
0.2413870141
0.2506351591
0.2597507996
0.2687185321
0.2775571819
0.2862781838
0.2949063116
0.3034882827
0.312058249
0.320672869
0.3294023634
0.3383330089
0.3475817496
0.3572994012
0.3676918856
0.379048333
0.3918257992
0.4066794535
0.4247723324
0.4479808406
0.4798879385
0.5264727541
0.5859123639
0.3594718736
0.1168998062
0.1196650196
0.1248352882
0.1319040647
0.1404339745
0.1500001531
0.1602147394
0.1707290871
0.1811645066
0.1908221858
0.1967447161
0.2047495263
0.2140465048
0.2237708825
0.2336668956
0.2435712652
0.2534074392
0.263116117
0.272685692
0.2820999934
0.2913787842
0.3005340687
0.309591854
0.3186011842
0.3275979118
0.3366415168
0.3458057166
0.3551810842
0.3648903874
0.3750919519
0.3860019542
0.3979239221
0.4113376718
0.4269309983
0.4459248539
0.4702890835
0.5037850693
0.5526896835
0.6150892263
0.3773726076
0.1225754517
0.12547492
0.1308962122
0.1383081876
0.1472522361
0.1572828658
0.1679933843
0.1790182179
0.1899602914
0.2000868641
0.2062969413
0.214690396
0.2244387555
0.2346352651
0.2450117431
0.2553969835
0.2657107172
0.2758907645
0.2859249555
0.2957963341
0.3055256229
0.315125409
0.3246229622
0.3340697077
0.3435032388
0.3529859231
0.3625950574
0.3724256119
0.382606315
0.3933031795
0.4047428773
0.4172436731
0.4313086787
0.4476590825
0.4675751158
0.4931222621
0.5282445238
0.579523524
0.64495265
0.3956945641
0.128384651
0.1314215334
0.137099756
0.144863006
0.1542309384
0.1647369481
0.1759550686
0.1875024005
0.1989630499
0.2095695497
0.2160739402
0.2248651845
0.2350755465
0.2457552977
0.2566235465
0.2675009729
0.2783035038
0.2889660125
0.2994757523
0.3098149637
0.3200053512
0.3300600984
0.3400077676
0.3499022213
0.3597828343
0.36971493
0.3797794684
0.390075921
0.4007391165
0.4119429358
0.4239247934
0.4370180375
0.4517496237
0.4688749197
0.4897348304
0.5164927286
0.5532795342
0.6069887921
0.6755187905
0.414447655
0.1343305467
0.1375080766
0.1434492756
0.151572066
0.1613738567
0.1723664327
0.1841040995
0.1961862245
0.2081776525
0.2192753726
0.2260810018
0.2352793962
0.2459626321
0.257136996
0.2685085876
0.2798897817
0.2911926117
0.3023489346
0.3133454134
0.3241634661
0.3348258024
0.3453462164
0.3557545934
0.3661072902
0.3764455054
0.3868375876
0.3973682464
0.4081415599
0.4192986015
0.4310213048
0.4435580798
0.457257713
0.4726715652
0.4905899873
0.5124159859
0.5404131263
0.5789036442
0.6351003462
0.7068041837
0.4336420254
0.1404163554
0.1437378425
0.1499482058
0.158438997
0.1686848552
0.1801754469
0.1924448854
0.2050743878
0.2176090842
0.2292095834
0.2363235398
0.245938665
0.2571059019
0.2687865174
0.2806732957
0.2925701118
0.3043850134
0.3160467705
0.3275414417
0.3388496033
0.3499949938
0.3609920324
0.3718719581
0.382693681
0.3935002661
0.4043631588
0.4153709062
0.4266323017
0.43829481
0.4505486072
0.4636533574
0.4779736487
0.4940858213
0.5128160326
0.5356308521
0.5648963953
0.6051307156
0.6638733938
0.738825754
0.4532880588
0.1466453694
0.1501142011
0.1566000625
0.1654675139
0.1761678889
0.1881682151
0.2009819385
0.2141716986
0.2272624471
0.2393775564
0.2468070952
0.2568487572
0.2685113843
0.2807101638
0.2931242519
0.305548823
0.3178878457
0.3300669304
0.3420715171
0.3538813203
0.3655211319
0.3770060103
0.3883685807
0.3996703664
0.4109563428
0.4223011246
0.433797187
0.4455581496
0.4577380188
0.470535407
0.4842214974
0.4991770516
0.5160039767
0.5355650794
0.5593919878
0.5899557806
0.6319749367
0.6933235006
0.7716008246
0.4733963835
0.1530209585
0.1566406019
0.1634084442
0.1726614191
0.1838270061
0.1963490613
0.2097198772
0.2234830785
0.2371429634
0.2497847922
0.2575373393
0.2680155751
0.2801852493
0.2929143859
0.3058681919
0.3188329365
0.3317084136
0.344416999
0.3569435
0.3692667491
0.3814126158
0.3933968136
0.4052533858
0.4170465306
0.4288231788
0.440661189
0.452657057
0.4649293421
0.4776387461
0.4909925167
0.5052736268
0.5208793922
0.5384378887
0.5588494346
0.5837122474
0.6156048389
0.6594508299
0.7234665986
0.8051471263
0.4939778776
0.1595465717
0.1633205756
0.1703770341
0.1800246041
0.1916663502
0.2047224112
0.2186634286
0.2330135647
0.2472559785
0.2604369208
0.2685200771
0.2794451596
0.2921338123
0.3054057858
0.3189120097
0.3324296388
0.3458541935
0.3591047394
0.3721654359
0.3850142127
0.3976780426
0.4101733093
0.4225355077
0.4348315738
0.4471104398
0.4594532846
0.471960719
0.4847563585
0.4980077579
0.511931003
0.5268211343
0.5430924111
0.5613996936
0.5826816945
0.6086047875
0.6418574458
0.6875732589
0.7543189945
0.8394828066
0.5150436754
0.1662257393
0.1701577359
0.177509602
0.1875610525
0.199690162
0.2132927945
0.2278174308
0.2427683129
0.2576069631
0.2713397049
0.2797612499
0.2911436938
0.3043635372
0.3181911211
0.3322627619
0.3463462854
0.3603328381
0.3741380974
0.3877455594
0.4011322302
0.4143262116
0.427344573
0.4402242954
0.4530351171
0.4658280186
0.4786875773
0.4917186159
0.5050499248
0.5188560733
0.5333621933
0.5488756766
0.565828125
0.5849018133
0.6070747518
0.6340830745
0.6687278033
0.7163574374
0.7858973787
0.8746264406
0.5366051728
0.1730620745
0.1771557816
0.1848100065
0.1952748411
0.2079027823
0.2220648478
0.2371868361
0.2527526004
0.2682015169
0.2824990427
0.291266939
0.3031175066
0.31688104
0.3312773084
0.345927671
0.3605904049
0.37515218
0.3895252056
0.4036922992
0.4176295211
0.4313661289
0.444919894
0.4583293185
0.4716670085
0.4849860413
0.4983744726
0.5119414364
0.5258210195
0.5401949709
0.5552976814
0.5714491849
0.5890988334
0.6089569618
0.6320418026
0.6601608917
0.6962304477
0.745818937
0.8182188346
0.9105970401
0.5586740343
0.1800592756
0.1843184984
0.192282197
0.2031701431
0.2163086539
0.2310433164
0.246776713
0.2629718283
0.2790453714
0.2939209711
0.3030433687
0.3153730754
0.3296930924
0.344671427
0.3599141293
0.3751697031
0.3903202361
0.4052743882
0.4200142821
0.4345150101
0.4488070129
0.4629087804
0.4768603712
0.4907373272
0.5045948717
0.5185246207
0.5326401204
0.5470808792
0.5620359946
0.5777493339
0.5945538708
0.6129171254
0.6335781525
0.6575963537
0.6868523465
0.7243802575
0.7759736958
0.8513008474
0.9474140647
0.5812621987
0.187221128
0.1916497613
0.1999302157
0.2112512296
0.2249123243
0.2402330576
0.2565922496
0.2734315251
0.2901443929
0.3056116691
0.3150969099
0.3279170303
0.3428066255
0.3583807229
0.3742297033
0.3900920671
0.4058452121
0.4213941651
0.4367203379
0.4517978319
0.4666582987
0.4813209636
0.4958274785
0.5102563901
0.524665118
0.5391489223
0.5538258656
0.5688410052
0.5843909599
0.6007292968
0.6182022337
0.6372958862
0.658778705
0.6837522295
0.7141718785
0.7531924611
0.8068380269
0.8851613137
0.9850974314
0.6043818857
0.1945515061
0.1991535363
0.2077582002
0.2195224723
0.2337184478
0.2496390427
0.2666387557
0.2841373492
0.3015045857
0.3175774612
0.3274340831
0.3407561572
0.3562287335
0.3724126126
0.3888821373
0.4053655696
0.4217355066
0.4378932569
0.4538195042
0.4694873362
0.4849296435
0.5001664043
0.5152409013
0.5302347564
0.5452076377
0.5602585348
0.5755101331
0.5911131692
0.6072719603
0.6242500017
0.6424070666
0.6622483041
0.6845722522
0.7105235797
0.742134267
0.7826826452
0.8384286272
0.9198185514
1.023667526
0.6280456025
0.2020543756
0.2068338828
0.2157703851
0.2279883459
0.2427317885
0.2592663603
0.2769216665
0.2950950923
0.3131320955
0.3298248207
0.3400615627
0.3538974019
0.3699666773
0.386774687
0.4038793581
0.4209984731
0.437999716
0.4547805891
0.4713210314
0.4875930926
0.5036309318
0.5194552975
0.5351111417
0.5506832341
0.5662335438
0.5818648781
0.5977046535
0.61390942
0.630691374
0.6483241728
0.6671814641
0.6877878779
0.710972748
0.7379248871
0.7707546391
0.8128667636
0.8707625866
0.9552913093
1.063145215
0.6522661508
0.2097337952
0.2146949557
0.223971105
0.2366534301
0.2519572222
0.2691202186
0.2874465446
0.3063106824
0.3250332125
0.342360373
0.3529861798
0.3673478736
0.3840278891
0.4014747157
0.4192294789
0.436999235
0.4546466389
0.4720652976
0.4892343875
0.506124896
0.5227722805
0.5391980781
0.5554489492
0.5716128855
0.5877542111
0.6039796408
0.6204214338
0.6372420899
0.6546618706
0.6729648338
0.6925388285
0.713928424
0.7379944745
0.7659709755
0.8000484779
0.8437611452
0.9038573973
0.9915987776
1.103551854
0.6770566334
0.2175939194
0.2227410077
0.2323647961
0.2455224125
0.2613997399
0.2792059481
0.2982190838
0.3177901866
0.3372143748
0.3551908997
0.3662149263
0.3811148485
0.3984199755
0.416520651
0.4349408036
0.453376511
0.4716852809
0.4897567329
0.5075692631
0.5250927716
0.5423640446
0.5594054264
0.5762653261
0.5930350328
0.6097812816
0.6266147864
0.6436727629
0.6611238012
0.6791964173
0.6981853147
0.7184928774
0.7406840838
0.7656520497
0.7946770167
0.8300316305
0.875382503
0.9377309625
1.028760598
1.144909302
0.7024304612
0.2256390003
0.2309763915
0.2409559994
0.2546000912
0.2710644496
0.2895290052
0.3092451119
0.3295398154
0.3496821724
0.3683233417
0.3797549588
0.3952057745
0.4131507224
0.4319206326
0.4510218319
0.4701391611
0.4891248595
0.5078644658
0.5263355771
0.5445069807
0.562416823
0.5800882743
0.5975715336
0.6149612652
0.6323266716
0.6497825601
0.6674712197
0.6855674737
0.7043082871
0.7239992592
0.7450576518
0.7680693317
0.793960436
0.8240585406
0.8607203173
0.9077479437
0.9724016073
1.066796873
1.187239934
0.7284013612
0.2338733903
0.2394055623
0.2497493625
0.263891377
0.2809565798
0.3000949744
0.3205305938
0.341565925
0.3624433501
0.3817648036
0.393613602
0.4096282744
0.4282280989
0.4476829916
0.4674812633
0.4872962535
0.5069748093
0.5263982921
0.5455434816
0.5643780261
0.5829414638
0.6012578108
0.619379098
0.6374034443
0.6554025777
0.6734954952
0.6918296786
0.7105863308
0.7300110648
0.7504206324
0.7722475224
0.7960989825
0.8229349476
0.8541314418
0.8921311405
0.9408749764
1.007888088
1.105728181
1.230566648
0.7549833831
0.2423015438
0.2480330801
0.2587496424
0.2734012961
0.291081482
0.3109095717
0.3320816345
0.3538750212
0.3755048112
0.3955225568
0.4077983533
0.4243901504
0.4436602614
0.4638162549
0.4843280019
0.5048570698
0.5252447866
0.5453682383
0.5652033678
0.5847166574
0.6039490703
0.6229254881
0.6416998166
0.6603737108
0.6790214834
0.6977664199
0.7167613168
0.7361939072
0.7563186552
0.7774637274
0.8000771985
0.8247881995
0.852591259
0.884911989
0.9242810923
0.974781522
1.044209602
1.145575583
1.274912885
0.7821909071
0.2509280204
0.2568636122
0.2679617081
0.2831349934
0.3014446334
0.3219786474
0.343904483
0.366473763
0.3888736219
0.409604044
0.4223168863
0.4394993884
0.4594555584
0.4803291504
0.5015711614
0.52283111
0.5439446751
0.5647845667
0.5853258711
0.6055338775
0.6254510073
0.6451030279
0.6645457645
0.6838844911
0.7031961661
0.7226084642
0.7422796219
0.762404056
0.78324529
0.805143174
0.8285617352
0.8541525031
0.8829454137
0.9164168339
0.9571875653
1.009485923
1.081385798
1.186360634
1.320302634
0.8100386519
0.2597574868
0.2659019357
0.2773905431
0.2930977346
0.3120516404
0.3333081899
0.3560055353
0.3793689661
0.4025570144
0.4240168829
0.4371770552
0.4549641623
0.475622535
0.4972306112
0.5192200701
0.5412280978
0.5630845911
0.5846577812
0.6059218776
0.626840948
0.6474589068
0.667802428
0.6879293009
0.7079485041
0.7279397038
0.7480350673
0.7683983988
0.7892309564
0.810805536
0.8334739463
0.8577165423
0.8842077788
0.9140138327
0.9486630201
0.9908683613
1.045006954
1.119436788
1.2281054
1.366760449
0.8385416826
0.2687947196
0.2751529403
0.2870412482
0.3032949092
0.3229082411
0.344904328
0.3683913376
0.3925676065
0.416562391
0.4387688707
0.452386899
0.470792838
0.492169937
0.5145297806
0.5372842756
0.5600579855
0.5826748889
0.6049986326
0.627002529
0.6486493956
0.6699846747
0.691035968
0.7118630758
0.7325787679
0.7532654822
0.7740599842
0.7951317772
0.8166891211
0.8390143027
0.8624713706
0.8875573916
0.9149702859
0.9458133233
0.9816679919
1.025341701
1.081363832
1.158383156
1.270832462
1.414311465
0.8677154187
0.2780446077
0.2846216304
0.2969190443
0.3137320338
0.3340203087
0.3567733351
0.3810685905
0.4060768243
0.4308973285
0.4538679878
0.467954646
0.4869939787
0.5091067163
0.5322360172
0.5557735504
0.5793309596
0.6027261664
0.6258181251
0.6485792298
0.6709710184
0.6930404969
0.7148162171
0.7363600369
0.7577886069
0.779187202
0.800697294
0.8224942193
0.8447934045
0.8678868506
0.8921511339
0.9181004267
0.9464566661
0.9783610884
1.015449604
1.060626233
1.118576224
1.198245973
1.314564936
1.462981405
0.8975756426
0.2869840908
0.293772573
0.3064653642
0.3238189124
0.3447594808
0.3682440456
0.393320424
0.4191327039
0.4447512184
0.4684604133
0.4829999752
0.5026514463
0.5254751362
0.5493480731
0.5736423676
0.5979571771
0.6221045692
0.6459389633
0.669431866
0.6925435787
0.7153226187
0.7377984556
0.7600349363
0.7821524618
0.8042390485
0.826440717
0.8489384408
0.8719545727
0.8957905021
0.9208349126
0.9476185077
0.9768864358
1.009816625
1.048097584
1.094726698
1.154539853
1.236771085
1.356829849
1.510018093
0.9264338261
0.2869840908
0.293772573
0.3064653642
0.3238189124
0.3447594808
0.3682440456
0.393320424
0.4191327039
0.4447512184
0.4684604133
0.4829999752
0.5026514463
0.5254751362
0.5493480731
0.5736423676
0.5979571771
0.6221045692
0.6459389633
0.669431866
0.6925435787
0.7153226187
0.7377984556
0.7600349363
0.7821524618
0.8042390485
0.826440717
0.8489384408
0.8719545727
0.8957905021
0.9208349126
0.9476185077
0.9768864358
1.009816625
1.048097584
1.094726698
1.154539853
1.236771085
1.356829849
1.510018093
0.9264338261
0.2869840908
0.293772573
0.3064653642
0.3238189124
0.3447594808
0.3682440456
0.393320424
0.4191327039
0.4447512184
0.4684604133
0.4829999752
0.5026514463
0.5254751362
0.5493480731
0.5736423676
0.5979571771
0.6221045692
0.6459389633
0.669431866
0.6925435787
0.7153226187
0.7377984556
0.7600349363
0.7821524618
0.8042390485
0.826440717
0.8489384408
0.8719545727
0.8957905021
0.9208349126
0.9476185077
0.9768864358
1.009816625
1.048097584
1.094726698
1.154539853
1.236771085
1.356829849
1.510018093
0.9264338261
0.2869840908
0.293772573
0.3064653642
0.3238189124
0.3447594808
0.3682440456
0.393320424
0.4191327039
0.4447512184
0.4684604133
0.4829999752
0.5026514463
0.5254751362
0.5493480731
0.5736423676
0.5979571771
0.6221045692
0.6459389633
0.669431866
0.6925435787
0.7153226187
0.7377984556
0.7600349363
0.7821524618
0.8042390485
0.826440717
0.8489384408
0.8719545727
0.8957905021
0.9208349126
0.9476185077
0.9768864358
1.009816625
1.048097584
1.094726698
1.154539853
1.236771085
1.356829849
1.510018093
0.9264338261
0.2869840908
0.293772573
0.3064653642
0.3238189124
0.3447594808
0.3682440456
0.393320424
0.4191327039
0.4447512184
0.4684604133
0.4829999752
0.5026514463
0.5254751362
0.5493480731
0.5736423676
0.5979571771
0.6221045692