/*--------------------------------*- C++ -*----------------------------------*\
| =========                 |                                                 |
| \\      /  F ield         | foam-extend: Open Source CFD                    |
|  \\    /   O peration     | Version:     3.2                                |
|   \\  /    A nd           | Web:         http://www.foam-extend.org         |
|    \\/     M anipulation  | For copyright notice see file Copyright         |
\*---------------------------------------------------------------------------*/
FoamFile
{
    version     2.0;
    format      ascii;
    class       volScalarField;
    location    "0";
    object      nut;
}
// * * * * * * * * * * * * * * * * * * * * * * * * * * * * * * * * * * * * * //

dimensions      [0 2 -1 0 0 0 0];

internalField   nonuniform List<scalar> 
18000
(
1.334311426e-05
1.320660792e-05
1.302149825e-05
1.288092097e-05
1.282678686e-05
1.284536784e-05
1.288201441e-05
1.285655018e-05
1.267711841e-05
1.225516431e-05
1.185793565e-05
1.143648024e-05
1.109705545e-05
1.079015969e-05
1.047560055e-05
1.013945521e-05
9.778049384e-06
9.393874188e-06
8.989023126e-06
8.568337898e-06
8.134318749e-06
7.691100227e-06
7.241798729e-06
6.788445255e-06
6.334188657e-06
5.880986169e-06
5.430640012e-06
4.98482183e-06
4.544711777e-06
4.111410759e-06
3.685695527e-06
3.267928657e-06
2.857729889e-06
2.453936468e-06
2.053782871e-06
1.652424342e-06
1.240697774e-06
8.07226719e-07
3.578533404e-07
2.535270989e-08
4.034331988e-05
3.993058873e-05
3.937090391e-05
3.894586415e-05
3.8782188e-05
3.883836816e-05
3.894917019e-05
3.887217831e-05
3.83296608e-05
3.705386948e-05
3.58528363e-05
3.45785528e-05
3.35522914e-05
3.262438256e-05
3.167330324e-05
3.065695739e-05
2.956423565e-05
2.840267003e-05
2.717859028e-05
2.590663544e-05
2.459436508e-05
2.325428013e-05
2.189580312e-05
2.052507482e-05
1.915161591e-05
1.778134412e-05
1.641970855e-05
1.507176344e-05
1.374107705e-05
1.243097798e-05
1.114381477e-05
9.880683674e-06
8.640434971e-06
7.419553036e-06
6.209676224e-06
4.99615626e-06
3.751288208e-06
2.440675027e-06
1.081980676e-06
7.665470486e-08
6.797886795e-05
6.728341213e-05
6.634033802e-05
6.562414208e-05
6.534834625e-05
6.544301034e-05
6.562971279e-05
6.549998076e-05
6.458583372e-05
6.243611352e-05
6.041236149e-05
5.826518198e-05
5.6535922e-05
5.4972387e-05
5.336980954e-05
5.165725736e-05
4.98160111e-05
4.785876226e-05
4.579617654e-05
4.365292085e-05
4.144173313e-05
3.918367757e-05
3.68946312e-05
3.458494132e-05
3.227065032e-05
2.996172966e-05
2.76673611e-05
2.53960611e-05
2.315384219e-05
2.094631311e-05
1.877743117e-05
1.664904358e-05
1.455921302e-05
1.250201564e-05
1.046336199e-05
8.418569608e-06
6.320955402e-06
4.112560043e-06
1.823147468e-06
1.291638882e-07
9.626470868e-05
9.527987539e-05
9.394439045e-05
9.293018713e-05
9.253963334e-05
9.267368692e-05
9.29380758e-05
9.275436259e-05
9.145984121e-05
8.841562768e-05
8.554979738e-05
8.250918173e-05
8.006038091e-05
7.784626282e-05
7.557685679e-05
7.315171583e-05
7.054433151e-05
6.777267621e-05
6.485185362e-05
6.181679448e-05
5.868553695e-05
5.548790999e-05
5.224639703e-05
4.897565083e-05
4.569838901e-05
4.242873211e-05
3.917968239e-05
3.596330003e-05
3.278809931e-05
2.966202278e-05
2.659067437e-05
2.35766699e-05
2.061726595e-05
1.770407377e-05
1.481714134e-05
1.192151584e-05
8.951089489e-06
5.823786221e-06
2.581754671e-06
1.829086662e-07
0.0001252161442
0.0001239351241
0.0001221979944
0.0001208787713
0.0001203707592
0.0001205451292
0.0001208890325
0.0001206500679
0.0001189662216
0.0001150064664
0.0001112787428
0.0001073236676
0.0001041383944
0.0001012583843
9.830645856e-05
9.515196088e-05
9.176041048e-05
8.815518491e-05
8.435593026e-05
8.040808262e-05
7.63351051e-05
7.217579767e-05
6.79594056e-05
6.370498845e-05
5.944209611e-05
5.518909587e-05
5.096290038e-05
4.677919689e-05
4.264906034e-05
3.8582822e-05
3.458777116e-05
3.066731035e-05
2.681787106e-05
2.302854166e-05
1.927336955e-05
1.550688997e-05
1.164311332e-05
7.575279299e-06
3.358212678e-06
2.379181138e-07
0.0001548488365
0.00015326466
0.0001511164346
0.0001494850143
0.0001488567799
0.0001490724149
0.0001494977038
0.0001492021877
0.0001471198552
0.0001422230147
0.0001376131167
0.0001327220636
0.0001287829881
0.000125221417
0.0001215709111
0.0001176698942
0.0001134757255
0.0001090173149
0.0001043189578
9.943684278e-05
9.439998563e-05
8.92563684e-05
8.404215733e-05
7.878092245e-05
7.35092067e-05
6.824972404e-05
6.302338953e-05
5.784960286e-05
5.274205988e-05
4.771353676e-05
4.277304782e-05
3.792480081e-05
3.316438275e-05
2.847829971e-05
2.383445738e-05
1.917663162e-05
1.439848322e-05
9.367986801e-06
4.152941535e-06
2.9422199e-07
0.0001851788164
0.0001832843499
0.0001807153553
0.0001787643914
0.0001780131058
0.0001782709769
0.0001787795664
0.000178426168
0.0001759359725
0.0001700799962
0.0001645671653
0.0001587181099
0.0001540074943
0.0001497483242
0.0001453828
0.0001407176975
0.000135702024
0.0001303703521
0.0001247517357
0.0001189133691
0.0001128899513
0.0001067388624
0.0001005033526
9.421160857e-05
8.790733077e-05
8.161768213e-05
7.536767432e-05
6.918050679e-05
6.3072558e-05
5.705910656e-05
5.11509324e-05
4.535306745e-05
3.966023435e-05
3.405629614e-05
2.850287226e-05
2.293272605e-05
1.721868979e-05
1.120287854e-05
4.966371174e-06
3.518507539e-07
0.0002162224917
0.0002140104338
0.0002110107688
0.0002087327421
0.0002078555098
0.0002081566108
0.0002087504611
0.0002083378184
0.0002054301626
0.0001985924809
0.0001921554701
0.0001853258697
0.0001798255589
0.0001748523747
0.0001697550069
0.0001643078391
0.0001584513301
0.0001522258481
0.0001456653178
0.000138848198
0.0001318150047
0.0001246327374
0.0001173518967
0.0001100053945
0.0001026442574
9.530020193e-05
8.800243274e-05
8.077803847e-05
7.36461433e-05
6.662458716e-05
5.972595717e-05
5.295612879e-05
4.630893997e-05
3.976554853e-05
3.328113972e-05
2.677720521e-05
2.010525871e-05
1.308094716e-05
5.798941644e-06
4.108355815e-07
0.0002479966564
0.0002454595338
0.0002420190643
0.0002394062788
0.0002384001361
0.0002387454843
0.0002394266016
0.0002389533205
0.0002356183811
0.0002277758936
0.000220392956
0.0002125597373
0.000206251149
0.0002005471492
0.0001947007168
0.0001884530809
0.0001817359506
0.0001745956262
0.0001670710178
0.0001592521138
0.0001511853839
0.0001429476735
0.0001345969042
0.0001261708244
0.000117727959
0.0001093046854
0.0001009344999
9.264847192e-05
8.446853586e-05
7.64151533e-05
6.850276103e-05
6.073809793e-05
5.311409643e-05
4.560914546e-05
3.817184469e-05
3.07121489e-05
2.305975154e-05
1.500320865e-05
6.651103347e-06
4.712083823e-07
0.0002805184996
0.0002776486633
0.0002737570167
0.0002708015951
0.0002696635087
0.0002700541452
0.000270824583
0.0002702892367
0.0002665169592
0.0002576460217
0.0002492948988
0.0002404344456
0.0002332985602
0.0002268465479
0.0002202334248
0.0002131664849
0.000205568482
0.0001974917881
0.0001889804158
0.0001801361546
0.000171011568
0.0001616935788
0.0001522477044
0.0001427166433
0.0001331665955
0.0001236387087
0.0001141708719
0.0001047982288
9.554559039e-05
8.643610146e-05
7.748609206e-05
6.870318476e-05
6.007938517e-05
5.159024819e-05
4.317763294e-05
3.473968583e-05
2.608376661e-05
1.697070292e-05
7.523317287e-06
5.330018169e-07
0.0003138056151
0.000310595236
0.0003062417955
0.0003029356753
0.0003016625403
0.0003020995308
0.000302961391
0.000302362519
0.0002981426124
0.0002882190245
0.0002788769338
0.0002689650743
0.0002609824246
0.0002537647984
0.0002463669434
0.0002384614206
0.0002299618172
0.0002209267201
0.0002114053644
0.0002015116181
0.0001913042825
0.0001808805944
0.0001703138459
0.0001596518023
0.0001489685189
0.0001383100262
0.0001277187092
0.0001172338819
0.0001068832993
9.669285278e-05
8.668081004e-05
7.685569822e-05
6.720857428e-05
5.771209239e-05
4.830121251e-05
3.886199482e-05
2.917893984e-05
1.898449434e-05
8.416055311e-06
5.962493141e-07
0.0003478760104
0.0003443170751
0.0003394909744
0.0003358259033
0.0003344145419
0.0003348989772
0.0003358544109
0.0003351905185
0.0003305124496
0.0003195114413
0.0003091550644
0.0002981670579
0.0002893177187
0.0002813164628
0.0002731154104
0.0002643515719
0.0002549291526
0.0002449130999
0.0002343579949
0.0002233900683
0.0002120745052
0.0002005191001
0.0001888051022
0.0001769854628
0.0001651422777
0.0001533265748
0.000141585341
0.0001299621586
0.0001184877961
0.0001071909559
9.609188914e-05
8.520004865e-05
7.450552049e-05
6.397798984e-05
5.354535514e-05
4.308130596e-05
3.234694566e-05
2.104567233e-05
9.329800374e-06
6.609850896e-07
0.000382748117
0.0003788324235
0.0003735225405
0.0003694900719
0.0003679372315
0.0003684702281
0.0003695214372
0.0003687909942
0.0003636439821
0.0003515402007
0.0003401456702
0.0003280561939
0.0003183197711
0.000309516446
0.0003004932962
0.000290850945
0.0002804839948
0.0002694639038
0.0002578507243
0.0002457833406
0.0002333334726
0.0002206197199
0.0002077314766
0.0001947270021
0.0001816966215
0.0001686964781
0.0001557782688
0.0001429899446
0.0001303653586
0.0001179360902
0.0001057244205
9.374075018e-05
8.19741713e-05
7.039133025e-05
5.891289781e-05
4.739990179e-05
3.558949789e-05
2.315535195e-05
1.026504679e-05
7.272441639e-07
0.0004184407998
0.0004141599534
0.000408354904
0.0004039463928
0.0004022487443
0.0004028314447
0.0004039806831
0.0004031821235
0.0003975551334
0.0003843226294
0.0003718655167
0.0003586486519
0.0003480042715
0.0003383800036
0.0003285154117
0.0003179738753
0.0003066401686
0.0002945924132
0.0002818962616
0.0002687035496
0.0002550926851
0.0002411933278
0.000227103208
0.000212886018
0.000198640506
0.000184428051
0.0001703051706
0.0001563242878
0.0001425224123
0.0001289340684
0.0001155836152
0.0001024824231
8.961856709e-05
7.695558311e-05
6.440674424e-05
5.18201186e-05
3.890835069e-05
2.531467448e-05
1.122230051e-05
7.950623821e-07
0.0004549733679
0.0004503187762
0.0004440069087
0.0004392135062
0.000437367642
0.000438001216
0.0004392507902
0.0004383825113
0.0004322642488
0.0004178764623
0.0004043317637
0.0003899609817
0.0003783872786
0.0003679227503
0.0003571969161
0.000345735036
0.0003334118239
0.0003203122221
0.0003065076149
0.0002921630945
0.0002773639142
0.0002622510537
0.000246930776
0.0002314723341
0.0002159830975
0.0002005298038
0.0001851739054
0.0001699724017
0.0001549655338
0.0001401908403
0.0001256748069
0.0001114297966
9.744284334e-05
8.367429956e-05
7.002986649e-05
5.634434764e-05
4.230529949e-05
2.752480808e-05
1.220207939e-05
8.644764322e-07
0.0004923655847
0.000487328453
0.0004804978415
0.0004753104908
0.0004733129234
0.0004739985679
0.000475350839
0.0004744112002
0.0004677901052
0.0004522198511
0.0004375619746
0.0004220101226
0.0004094852288
0.000398160668
0.0003865533257
0.0003741494452
0.0003608134436
0.0003466372444
0.0003316980986
0.0003161746665
0.000300159208
0.0002838042895
0.000267224907
0.0002504960052
0.0002337337778
0.0002170104474
0.0002003925166
0.0001839416697
0.0001677014548
0.0001517124956
0.0001360034546
0.0001205877109
0.0001054512328
9.055111428e-05
7.578530656e-05
6.09750364e-05
4.578218197e-05
2.978694838e-05
1.320491347e-05
9.355238659e-07
0.0005306376786
0.0005252090054
0.0005178474433
0.0005122568743
0.0005101040339
0.0005108429743
0.0005123003588
0.0005112876809
0.0005041519212
0.000487371375
0.0004715741263
0.0004548134125
0.0004413149456
0.0004291101148
0.0004166005216
0.0004032324744
0.0003888598514
0.0003735817214
0.0003574813401
0.0003407512553
0.0003234908984
0.0003058646949
0.0002879965796
0.0002699673227
0.0002519021497
0.0002338788973
0.0002159692373
0.0001982396488
0.0001807370649
0.0001635052672
0.0001465751459
0.0001299611203
0.0001136480679
9.758974747e-05
8.167617801e-05
6.571469e-05
4.934087905e-05
3.210231915e-05
1.423134526e-05
1.008243118e-06
0.0005698103539
0.0005639809257
0.0005560759192
0.0005500726439
0.0005477608767
0.000548554367
0.0005501193385
0.0005490319027
0.0005413693678
0.00052335005
0.0005063866186
0.0004883885973
0.0004738936481
0.0004607878336
0.0004473547586
0.0004329998569
0.0004175662198
0.0004011602294
0.0003838712875
0.0003659061563
0.0003473716073
0.0003284442041
0.0003092570308
0.0002898968201
0.000270498042
0.000251144279
0.0002319124942
0.000212874074
0.0001940794163
0.0001755755347
0.0001573955999
0.0001395550955
0.0001220377828
0.0001047940069
8.770566767e-05
7.056587248e-05
5.298331589e-05
3.447217296e-05
1.528193004e-05
1.082673529e-06
0.0006099048023
0.0006036651891
0.0005952039504
0.0005887782573
0.0005863038236
0.0005871531476
0.0005888282375
0.0005876642849
0.0005794625791
0.0005601753401
0.0005420182845
0.0005227538406
0.0005072389608
0.0004932109616
0.0004788326743
0.0004634676965
0.0004469480784
0.0004293876879
0.0004108822174
0.0003916529779
0.0003718142537
0.0003515550323
0.0003310177623
0.000310295279
0.0002895315147
0.0002688159329
0.0002482309122
0.0002278528621
0.0002077357268
0.0001879298279
0.0001684706703
0.0001493748269
0.0001306249163
0.0001121677899
9.38770374e-05
7.553120826e-05
5.671146301e-05
3.689779185e-05
1.635723615e-05
1.158855363e-06
0.0006509427142
0.0006442832638
0.0006352527042
0.0006283946534
0.0006257537256
0.0006266601969
0.0006284479966
0.0006272057265
0.0006184521627
0.000597867167
0.0005784884001
0.0005579277332
0.0005413689229
0.000526397039
0.0005110512977
0.0004946524755
0.0004770213223
0.0004582793675
0.0004385287422
0.0004180056485
0.0003968320606
0.000375209682
0.000353290546
0.0003311737346
0.0003090128645
0.0002869034189
0.0002649333193
0.0002431841165
0.0002217133844
0.0002005748304
0.0001798063484
0.0001594256265
0.0001394141139
0.0001197150856
0.0001001936258
8.061338347e-05
6.052733724e-05
3.938048805e-05
1.745784531e-05
1.236829834e-06
0.00069294629
0.0006858571232
0.000676243846
0.0006689432637
0.0006661319239
0.0006670968875
0.000669000049
0.0006676776186
0.0006583592109
0.0006364459211
0.0006158166946
0.0005939293034
0.0005763019978
0.0005603640187
0.0005440280581
0.0005265710642
0.0005078022202
0.0004878508977
0.0004668258179
0.0004449784244
0.000422438562
0.0003994209497
0.0003760874311
0.0003525434815
0.0003289526303
0.0003054165219
0.000282028751
0.0002588761309
0.0002360199504
0.0002135173827
0.0001914087666
0.0001697129318
0.0001484101302
0.0001274399768
0.0001066588499
8.581514745e-05
6.443300289e-05
4.192160461e-05
1.858435294e-05
1.316639124e-06
0.0007359382528
0.000728409258
0.0007181995512
0.0007104460242
0.0007074602625
0.0007084850946
0.0007105063326
0.0007091018555
0.0006992053127
0.0006759324726
0.000654023362
0.0006307780273
0.0006120570836
0.000595130276
0.0005777807953
0.0005592407298
0.0005393074241
0.0005181182762
0.0004957887527
0.0004725858972
0.0004486476105
0.0004242019333
0.0003994207501
0.0003744160804
0.0003493615991
0.0003243652571
0.0002995264558
0.0002749373945
0.0002506631646
0.0002267644864
0.0002032842015
0.0001802423078
0.000157617832
0.0001353466426
0.0001132762074
9.113931424e-05
6.843057284e-05
4.452251624e-05
1.973736843e-05
1.398326407e-06
0.0007799418604
0.000771962688
0.0007611425169
0.000752925387
0.0007497610991
0.0007508472084
0.0007529893014
0.0007515008471
0.000741012565
0.0007163481829
0.0006931290713
0.0006684938393
0.000648653523
0.0006307146189
0.0006123277689
0.000592679146
0.0005715539777
0.000549097877
0.0005254332149
0.0005008430021
0.0004754733847
0.0004495660387
0.0004233031259
0.0003968033638
0.0003702508118
0.0003437598754
0.0003174358993
0.000291376596
0.0002656509485
0.000240323308
0.0002154390775
0.0001910194508
0.0001670422004
0.0001434393603
0.0001200492781
9.658876412e-05
7.252220968e-05
4.718462998e-05
2.091751556e-05
1.481935876e-06
0.000824980918
0.0008165409748
0.0008050959748
0.0007964043328
0.0007930573178
0.0007942061463
0.0007964719381
0.0007948975305
0.0007838035849
0.0007577149164
0.000733154978
0.0007070971431
0.0006861111143
0.0006671362978
0.0006476876682
0.0006269044025
0.0006045593257
0.0005808064597
0.0005557752417
0.0005297650256
0.0005029303969
0.0004755269875
0.0004477474785
0.0004197174431
0.0003916315692
0.0003636108689
0.0003357667705
0.0003082026287
0.0002809914104
0.0002542011825
0.0002278799703
0.000202050191
0.0001766883339
0.000151722508
0.000126981726
0.0001021664451
7.671012695e-05
4.990938599e-05
2.212543276e-05
1.567512762e-06
0.0008710797905
0.0008621682342
0.0008500837023
0.0008409063825
0.0008373723406
0.0008385853642
0.0008409777655
0.000839315382
0.000827601521
0.0008000550513
0.0007741227352
0.0007466088219
0.0007244501208
0.000704415016
0.000683879622
0.0006619350142
0.0006383413232
0.0006132611775
0.0005868312473
0.0005593676138
0.0005310335006
0.0005020988239
0.0004727670317
0.0004431707139
0.0004135154375
0.0003839289766
0.0003545289858
0.0003254245952
0.000296692849
0.0002684056176
0.0002406136099
0.0002133404958
0.0001865614507
0.0001602005666
0.0001340773015
0.0001078753747
8.099659017e-05
5.269825828e-05
2.336177348e-05
1.655103359e-06
0.0009182634165
0.0009088691495
0.0008961300369
0.0008864556108
0.0008827301411
0.0008840088703
0.0008865308604
0.0008847784309
0.0008724300672
0.0008433914927
0.0008160545054
0.0007870502508
0.0007636912832
0.0007425709405
0.0007209232093
0.0006977899318
0.0006729182455
0.000646479588
0.0006186180324
0.0005896667811
0.0005597978989
0.0005292959227
0.0004983753205
0.0004671758641
0.0004359142555
0.00040472519
0.0003737326951
0.0003430518121
0.0003127637584
0.0002829442976
0.000253646885
0.0002248964729
0.0001966668921
0.0001688781226
0.0001413398432
0.0001137186411
8.538391824e-05
5.555275558e-05
2.462720656e-05
1.744755052e-06
0.0009665573215
0.0009566689851
0.0009432598888
0.0009330766591
0.000929155257
0.000930501238
0.0009331558662
0.0009313112718
0.000918313475
0.000887747685
0.000858972973
0.0008284433079
0.0008038558304
0.0007816247129
0.0007588384702
0.0007344885523
0.0007083087982
0.0006804796617
0.0006511527931
0.0006206789188
0.000589239153
0.0005571329971
0.0005245861985
0.0004917458801
0.0004588401407
0.0004260107596
0.0003933882873
0.0003610938154
0.0003292128328
0.0002978250875
0.0002669868465
0.0002367243741
0.0002070101248
0.0001777598703
0.0001487732798
0.0001196994057
8.987448463e-05
5.847442212e-05
2.592241658e-05
1.836516341e-06
0.001015987632
0.0010055936
0.0009914987544
0.0009807947483
0.0009766728035
0.0009780876187
0.0009808780062
0.0009789390781
0.0009652765663
0.0009331476239
0.0009029013562
0.0008708103861
0.0008449654904
0.0008215974605
0.000797645916
0.000772050729
0.0007445321268
0.0007152797919
0.00068445313
0.0006524208038
0.0006193731899
0.0005856251063
0.0005514138453
0.0005168940537
0.0004823054955
0.0004477972005
0.0004135063957
0.0003795603656
0.0003460489708
0.0003130560377
0.0002806407109
0.0002488305978
0.0002175967443
0.0001868506146
0.0001563816329
0.0001258209037
9.447071865e-05
6.146483847e-05
2.724810421e-05
1.930436867e-06
0.001066581087
0.001055669461
0.00104087273
0.001029635693
0.001025308486
0.001026793756
0.001029723097
0.001027687615
0.001013344747
0.0009796158698
0.0009478634192
0.0009141744049
0.0008870425029
0.0008625108078
0.0008373665407
0.0008104967821
0.0007816078274
0.0007508988048
0.0007185370579
0.0006849096079
0.0006502163116
0.000614787664
0.0005788727741
0.0005426339895
0.000506323014
0.0004700962986
0.0004340979039
0.0003984614525
0.0003632812803
0.0003286453878
0.0002946158647
0.0002612216934
0.0002284324779
0.0001961552735
0.0001641690183
0.0001320864468
9.917510676e-05
6.452562237e-05
2.860498663e-05
2.026567439e-06
0.001118365059
0.001106923658
0.001091408525
0.001079625915
0.001075088617
0.001076645998
0.001079717562
0.001077583256
0.001062544021
0.001027177561
0.0009938834853
0.0009585588233
0.0009301096303
0.0009043868879
0.0008780218322
0.00084984751
0.0008195559571
0.0007873559694
0.0007534230154
0.0007181629066
0.0006817852033
0.0006446364464
0.0006069778394
0.0005689796123
0.0005309056892
0.0004929201172
0.0004551739511
0.0004178073014
0.0003809190836
0.0003446015711
0.0003089198681
0.0002739043641
0.0002395231873
0.0002056788804
0.0001721396488
0.0001384994246
0.0001039901939
6.765842964e-05
2.999379788e-05
2.124960062e-06
0.00117136756
0.001159383918
0.00114313348
0.001130792458
0.001126040124
0.001127671314
0.001130888449
0.001128652991
0.001112901005
0.001075858427
0.001040986451
0.001003987652
0.0009741901711
0.0009472483548
0.0009196337841
0.0008901242007
0.0008583970449
0.0008246710082
0.000789129875
0.0007521986894
0.0007140969433
0.0006751876011
0.0006357442456
0.0005959451745
0.0005560668199
0.0005162810035
0.0004767459393
0.0004376083777
0.0003989719224
0.0003609332197
0.0003235604592
0.000286885471
0.0002508748724
0.0002154265876
0.0001802978363
0.0001450633062
0.000108918585
7.086495506e-05
3.141528927e-05
2.225667963e-06
0.001225617264
0.001213078623
0.001196075575
0.001183163002
0.001178190573
0.001179897308
0.001183263439
0.00118092445
0.00116444294
0.001125684804
0.001089197797
0.001050485468
0.001019307972
0.0009911183961
0.0009622249081
0.0009313486434
0.0008981521035
0.0008628641083
0.0008256769538
0.0007870353692
0.0007471690117
0.0007064576559
0.000665187555
0.000623545264
0.0005818200178
0.0005401915956
0.0004988255386
0.0004578753938
0.000417449563
0.0003776491687
0.0003385455586
0.0003001720366
0.0002624936743
0.0002254036683
0.0001886479944
0.0001517816428
0.0001139629461
7.414693332e-05
3.287022982e-05
2.328745624e-06
0.001281143519
0.001268036818
0.001250263452
0.001236765879
0.001231568175
0.001233352233
0.001236870865
0.001234425909
0.001217197709
0.001176683646
0.001138543606
0.001098077425
0.001065487442
0.001036020744
0.001005818245
0.0009735431391
0.0009388426391
0.0009019559309
0.0008630840225
0.0008226917915
0.0007810192996
0.0007384635269
0.0006953236953
0.0006517948118
0.0006081792147
0.0005646648282
0.0005214246932
0.0004786193133
0.0004363620014
0.0003947584611
0.0003538832726
0.0003137712487
0.0002743858785
0.0002356155199
0.0001971946403
0.0001586580686
0.0001191260063
7.750613987e-05
3.435940659e-05
2.434248809e-06
0.001337976364
0.001324288236
0.001305726425
0.001291630085
0.001286201806
0.001288065007
0.001291739729
0.001289186313
0.001271193852
0.001228882544
0.001189050571
0.00114678927
0.001112753561
0.00108197969
0.001050437377
0.001016730514
0.0009804906645
0.000941967624
0.0009013713178
0.0008591872458
0.0008156661193
0.0007712225288
0.0007261689699
0.0006807091003
0.0006351586704
0.0005897139409
0.0005445556291
0.0004998513585
0.0004557194687
0.0004122703526
0.0003695818987
0.0003276904641
0.0002865579184
0.0002460676668
0.0002059423974
0.0001656963038
0.0001244105585
8.094439198e-05
3.588362522e-05
2.54223459e-06
0.001396146544
0.001381863307
0.001362494499
0.001347785303
0.001342121023
0.001344065229
0.001347899714
0.001345235284
0.001326460579
0.001282309734
0.001240746018
0.001196647354
0.0011611319
0.001129020098
0.001096106443
0.001060934133
0.001023118711
0.0009829208332
0.0009405595523
0.0008965414756
0.0008511282142
0.0008047523835
0.0007577400653
0.0007103037716
0.0006627729803
0.000615352485
0.0005682308596
0.0005215830155
0.0004755324371
0.0004301943169
0.0003856499295
0.000341937213
0.0002990163788
0.0002567657634
0.0002148959982
0.0001729001558
0.0001298194616
8.446354968e-05
3.744371028e-05
2.652761388e-06
0.001455685527
0.001440793179
0.001420598384
0.001405261911
0.001399356076
0.001401383193
0.001405381201
0.001402603146
0.001383027789
0.001336994121
0.001293657911
0.001247678649
0.001210648631
0.001177167414
0.001142850149
0.001106177908
0.001066749838
0.001024837713
0.000980669926
0.0009347746885
0.0008874247684
0.00083907123
0.0007900540609
0.0007405948357
0.0006910370832
0.0006415943301
0.0005924631925
0.0005438260405
0.0004958116249
0.0004485400503
0.0004020960575
0.0003565192023
0.0003117679996
0.0002677155972
0.0002240602864
0.0001802735219
0.0001353556418
8.806551676e-05
3.904050573e-05
2.765888994e-06
0.001516625524
0.001501109731
0.001480069512
0.001464091002
0.001457937928
0.001460049907
0.001464215285
0.001461320932
0.001440926083
0.001392965288
0.001347814875
0.001299910764
0.001261330542
0.001226447685
0.001190693782
0.001152486315
0.001111407651
0.00106774094
0.001021724138
0.000973907568
0.0009245754175
0.0008741976339
0.0008231284378
0.0007715986795
0.0007199662692
0.0006684536727
0.0006172657369
0.0005665924667
0.0005165680027
0.0004673174775
0.0004189291797
0.0003714443208
0.000324819679
0.0002789230917
0.0002334402197
0.0001878203908
0.0001410220939
9.17522418e-05
4.06748754e-05
2.881678609e-06
0.001578999501
0.001562845593
0.001540940056
0.001524304401
0.001517898271
0.001520097109
0.001524433796
0.001521420407
0.001500186783
0.001450253513
0.001403246207
0.001353371953
0.001313205049
0.001276887572
0.001239663224
0.001199884406
0.001157116307
0.001111653724
0.001063744397
0.001013961284
0.0009626002594
0.000910150598
0.0008569810885
0.0008033320755
0.0007495761886
0.000695945043
0.0006426519105
0.0005898946101
0.0005378127992
0.0004865367569
0.0004361584025
0.0003867206426
0.0003381784778
0.00029039431
0.0002430408723
0.0001955448452
0.0001468218834
9.552571925e-05
4.234770347e-05
3.000192871e-06
0.001642841201
0.001626034162
0.001603242947
0.001585934683
0.001579269542
0.001581557283
0.00158606931
0.001582934084
0.001560841948
0.001508889789
0.001459981896
0.001408091138
0.001366300217
0.001328514361
0.001289784968
0.001248397823
0.001203900535
0.001156599821
0.001106753436
0.001054957505
0.001001519865
0.0009469495721
0.0008916303267
0.0008358121906
0.0007798828596
0.0007240833134
0.0006686354467
0.0006137450767
0.0005595575075
0.0005062082855
0.0004537930465
0.0004023564318
0.0003518516227
0.0003021354578
0.0002528674382
0.0002034510639
0.0001527581479
9.938799048e-05
4.405989488e-05
3.121495895e-06
0.001708185162
0.001690709624
0.001667011888
0.001649015189
0.001642084942
0.001644463678
0.001649155171
0.001645895241
0.001622924391
0.001568905836
0.001518052633
0.001464097922
0.001420644768
0.001381355981
0.001341086127
0.001298052809
0.001251785644
0.001202603545
0.001150774522
0.001096918409
0.001041355288
0.0009846144637
0.0009270948969
0.0008690565961
0.0008109026776
0.0007528837061
0.000695230402
0.0006381567692
0.000581813891
0.0005263427052
0.0004718426516
0.0004183601471
0.0003658465107
0.0003141528868
0.0002629252331
0.000211543324
0.0001588340988
0.0001033411449
4.581237592e-05
3.245653303e-06
0.001775066733
0.001756906964
0.001732281378
0.001713580043
0.001706378452
0.001708850324
0.001713725506
0.001710337938
0.001686467697
0.001630334123
0.001577489834
0.001521422603
0.001476268102
0.001435441018
0.001393594455
0.001348876229
0.001300797538
0.001249689783
0.001195831468
0.001139866696
0.00108212808
0.001023165649
0.0009633939847
0.0009030832764
0.0008426524235
0.0007823618013
0.0007224511638
0.0006631428937
0.00060459399
0.0005469509084
0.0004903169824
0.0004347404462
0.0003801707127
0.0003264530982
0.0002732196983
0.0002198260033
0.000165053023
0.0001073873211
4.760609462e-05
3.372732261e-06
0.001843522095
0.001824661997
0.001799086726
0.001779664175
0.001772184855
0.001774752054
0.001779815247
0.001776297038
0.001751506242
0.001693207879
0.001638325653
0.001580096192
0.00153320031
0.001490798731
0.001447338358
0.001400895575
0.001350962732
0.001297884009
0.001241948651
0.0011838256
0.001123860297
0.001062623982
0.001000547227
0.0009379106392
0.0008751492735
0.0008125335464
0.000750312458
0.0006887169674
0.0006279101279
0.0005680440438
0.0005092260331
0.0004515061905
0.0003948319779
0.0003390427461
0.0002837564027
0.0002283035825
0.0001714182848
0.0001115287079
4.944202135e-05
3.502801518e-06
0.001913588283
0.001894011374
0.001867464072
0.001847303333
0.001839539749
0.00184220452
0.001847460147
0.001843808223
0.00181807521
0.00175756112
0.001700593002
0.001640150431
0.001591472191
0.001547459068
0.00150234691
0.00145413899
0.001402308365
0.001347212295
0.001289151018
0.001228818902
0.001166574515
0.001103010811
0.001038574723
0.0009735575256
0.0009084108076
0.0008434152634
0.000778829357
0.0007148928251
0.0006517749185
0.0005896335222
0.0005285800332
0.0004686664499
0.0004098382376
0.0003519286414
0.0002945410466
0.0002369806478
0.0001779333278
0.0001157675458
5.132114932e-05
3.635931437e-06
0.001985303199
0.001964992613
0.001937450406
0.00191653411
0.001908479573
0.00191124421
0.001916696801
0.001912908015
0.001886210615
0.001823428657
0.001764325564
0.001701617807
0.001651115269
0.001605452681
0.001558649869
0.001508635277
0.001454862212
0.001397701325
0.001337464105
0.001274870942
0.001210293843
0.001144347983
0.001077497045
0.00101004322
0.0009424550194
0.0008750236587
0.0008080172876
0.0007416846275
0.0006762012719
0.000611731023
0.0005483894525
0.0004862305076
0.0004251976099
0.0003651177548
0.0003055794642
0.0002458618932
0.0001846016764
0.0001201061279
5.324449509e-05
3.772194039e-06
0.002058705641
0.002037644113
0.00200908359
0.001987393958
0.001979041621
0.001981908475
0.001987562664
0.001983633796
0.001955949315
0.001890846126
0.001829557819
0.001764531573
0.001712161809
0.001664810942
0.001616277694
0.001564413917
0.001508652705
0.001449378414
0.001386914049
0.001322006634
0.001255041932
0.001186657861
0.001117335249
0.001047387459
0.0009773003265
0.000907375832
0.0008378920401
0.0007691068683
0.0007012024024
0.0006343485006
0.0005686650078
0.0005042078657
0.0004409184039
0.0003786172216
0.000316877627
0.0002549521235
0.000191426938
0.0001245468013
5.521309915e-05
3.911663039e-06
0.002133835317
0.002112005177
0.002082402377
0.002059921211
0.002051264067
0.002054235543
0.002060096074
0.002056023827
0.002027329038
0.001959849996
0.001896325055
0.001828925765
0.001774644837
0.001725565965
0.001675261561
0.001621505086
0.001563708944
0.001502271518
0.0014375276
0.001370251477
0.001300842989
0.001229963334
0.001158110887
0.001085610447
0.001012965579
0.0009404892849
0.0008684697761
0.0007971743826
0.0007267918351
0.0006574981906
0.0005894176677
0.0005226082494
0.0004570091244
0.0003924343447
0.0003284416471
0.0002642562562
0.000198412805
0.0001290919682
5.722802648e-05
4.054413888e-06
0.002210732871
0.002188116033
0.002157446429
0.002134155104
0.00212518598
0.00212826454
0.002134336269
0.002130117269
0.002100388399
0.002030477598
0.001964663393
0.001894835217
0.001838598155
0.001787750614
0.001735633379