/*--------------------------------*- C++ -*----------------------------------*\
| =========                 |                                                 |
| \\      /  F ield         | foam-extend: Open Source CFD                    |
|  \\    /   O peration     | Version:     3.2                                |
|   \\  /    A nd           | Web:         http://www.foam-extend.org         |
|    \\/     M anipulation  | For copyright notice see file Copyright         |
\*---------------------------------------------------------------------------*/
FoamFile
{
    version     2.0;
    format      ascii;
    class       volScalarField;
    location    "0";
    object      tpphi;
}
// * * * * * * * * * * * * * * * * * * * * * * * * * * * * * * * * * * * * * //

dimensions      [0 0 0 0 0 0 0];

internalField   nonuniform List<scalar> 
18000
(
0.003008063703
0.00299102768
0.002972695539
0.002969850987
0.002990054446
0.003029769231
0.003076208545
0.003109307704
0.003103775699
0.003031559799
0.002951452597
0.002876337072
0.002833716584
0.002808389577
0.002788613431
0.002769124683
0.002747855505
0.002724153772
0.002697712435
0.002668634766
0.002636817999
0.002602345891
0.002565179897
0.002525088217
0.002481988499
0.002435597867
0.002385533027
0.002331290704
0.002272168867
0.002207242299
0.002135217109
0.00205424641
0.001961320559
0.001852114649
0.001718883436
0.001549335691
0.001320970104
0.0009990514949
0.0005546959196
0.0001266978548
0.009094973923
0.009043464977
0.008988037181
0.008979436589
0.009040522376
0.00916060126
0.009301011968
0.009401088302
0.009384362112
0.009166015099
0.008923808489
0.008696694368
0.00856783
0.008491253009
0.008431459219
0.008372534384
0.008308226365
0.008236563438
0.008156617237
0.008068700002
0.007972501019
0.007868273533
0.007755900997
0.007634682557
0.007504369222
0.007364105707
0.007212733113
0.007048729765
0.006869973057
0.006673665564
0.006455895169
0.006211077746
0.005930113556
0.005599926099
0.005197097392
0.004684464525
0.003993994088
0.003020663188
0.001677140321
0.0003830748946
0.01532511536
0.01523832231
0.01514492596
0.01513043388
0.015233364
0.01543569803
0.01567229138
0.01584092093
0.01581273714
0.0154448204
0.01503670002
0.01465401062
0.01443687297
0.01430784003
0.01420708693
0.01410779804
0.01399943843
0.01387868574
0.01374397565
0.01359583429
0.01343373812
0.01325811383
0.01306876507
0.01286451087
0.0126449317
0.01240858637
0.01215352215
0.01187717499
0.01157596828
0.01124518833
0.0108782432
0.01046572357
0.009992296308
0.009435927383
0.008757157278
0.007893366145
0.006729917059
0.00508984547
0.002825996986
0.0006454847481
0.02170185839
0.02157895096
0.02144669262
0.02142617042
0.02157192951
0.02185845424
0.0221934935
0.02243228939
0.0223923784
0.0218713724
0.02129343413
0.02075150861
0.02044402051
0.02026129728
0.02011862107
0.01997801831
0.01982457053
0.01965357294
0.01946281031
0.0192530277
0.0190234837
0.01877478258
0.01850664626
0.01821740239
0.01790645686
0.01757176882
0.017210573
0.01681923846
0.01639270037
0.0159242837
0.01540465359
0.01482048556
0.01415006637
0.01336219369
0.01240098901
0.0111777765
0.009530219091
0.007207717724
0.004001887422
0.0009140693734
0.0282286527
0.02806878109
0.02789674629
0.02787005208
0.02805964795
0.02843234447
0.02886814617
0.02917875949
0.02912684535
0.02844914775
0.02769739559
0.02699248695
0.02659252237
0.02635484546
0.02616925964
0.02598637086
0.02578677395
0.02556434914
0.02531621499
0.02504334064
0.0247447617
0.02442126418
0.02407248635
0.02369625292
0.02329179108
0.02285644623
0.02238662142
0.02187759373
0.0213227751
0.02071348297
0.02003757505
0.01927771955
0.01840567301
0.01738084906
0.01613056382
0.01453947238
0.01239641509
0.009375425677
0.005205447761
0.001188974069
0.03490902915
0.03471132355
0.03449857632
0.03446556486
0.03470002903
0.03516092505
0.03569986024
0.03608398093
0.03601978118
0.03518170487
0.03425204881
0.0333803219
0.03288570476
0.03259178106
0.03236227593
0.03213610609
0.0318892741
0.03161421194
0.03130735628
0.03096990557
0.03060066723
0.03020061327
0.02976929635
0.0293040264
0.02880384773
0.02826547751
0.02768446756
0.02705497728
0.02636885952
0.02561537699
0.02477951389
0.02383983681
0.02276141842
0.02149406751
0.01994789935
0.01798027241
0.01533005562
0.01159414202
0.006437329106
0.001470347554
0.04174660169
0.04151017183
0.04125575415
0.0412162768
0.04149666507
0.04204783601
0.04269233153
0.04315168929
0.04307491484
0.04207268593
0.04096093971
0.03991846913
0.03932697217
0.03897547813
0.03870102022
0.03843055088
0.03813537232
0.0378064342
0.03743947524
0.03703592863
0.0365943682
0.03611595635
0.03560015811
0.03504375652
0.0344456087
0.03380178881
0.03310697743
0.03235418995
0.03153368347
0.03063261759
0.02963303539
0.02850930535
0.02721965898
0.02570407418
0.02385506068
0.02150203797
0.0183327277
0.01386506702
0.007698197878
0.001758342044
0.0487450693
0.04846900395
0.04817193528
0.04812583989
0.0484532329
0.04909680303
0.04984934281
0.05038570804
0.05029606301
0.04912581883
0.04782769768
0.04661046565
0.04591980918
0.04550939011
0.04518892164
0.04487311038
0.04452844761
0.04414436577
0.04371588922
0.04324469141
0.04272910708
0.04217049349
0.04156822601
0.04091854836
0.04022012607
0.03946837518
0.03865708449
0.03777809851
0.036820041
0.03576791898
0.03460076522
0.03328865126
0.03178280649
0.03001314661
0.0278541615
0.02510667428
0.02140605572
0.0161894292
0.00898873618
0.002053113339
0.05590821799
0.0555915845
0.05525086122
0.05519799205
0.05557349587
0.05631163944
0.05717476588
0.05778995065
0.05768713216
0.05634491914
0.05485603747
0.05345993168
0.05266778239
0.05219705172
0.05182949
0.05146726989
0.0510719585
0.05063143535
0.05013999363
0.04959955273
0.04900820263
0.04836750008
0.04767672864
0.04693158005
0.04613052373
0.04526830211
0.04433779125
0.04332963718
0.04223079192
0.04102405926
0.0396853908
0.03818046006
0.03645332952
0.03442361592
0.03194736526
0.02879613137
0.0245517023
0.018568486
0.01030964217
0.002354820904
0.0632399229
0.06288176666
0.06249636153
0.06243655919
0.06286130591
0.06369624832
0.06467256364
0.06536842266
0.06525212073
0.06373389227
0.06204976129
0.06047057265
0.0595745423
0.05904208085
0.05862631773
0.05821659671
0.05776944489
0.05727115231
0.05671526379
0.05610395042
0.05543505172
0.05471032857
0.05392897058
0.05308610452
0.05217999909
0.05120470725
0.05015217084
0.04901180923
0.04776886335
0.0464038819
0.04488966282
0.04318737812
0.04123375474
0.03893786808
0.03613688628
0.03257240515
0.02777136915
0.02100352444
0.01166163042
0.002663627956
0.07074415032
0.07034349424
0.06991235586
0.0698454572
0.07032060557
0.0712546246
0.07234679224
0.07312522385
0.07299512121
0.07129673548
0.06941276078
0.06764618117
0.06664382533
0.0660481805
0.06558308176
0.06512474209
0.06462452997
0.0640671086
0.06344525678
0.06276140324
0.06201313114
0.06120241029
0.06032833416
0.05938545124
0.05837182479
0.05728080207
0.05610336873
0.0548276886
0.05343725125
0.05191029726
0.05021639668
0.04831211408
0.04612666824
0.0435583452
0.04042499102
0.03643753851
0.03106679805
0.02349586183
0.01304543234
0.002979701553
0.07842495988
0.07798080391
0.07750285611
0.07742869416
0.07795543018
0.07899085719
0.08020160328
0.08106455051
0.08092032241
0.07903754013
0.07694901917
0.07499063908
0.07387945581
0.07321914084
0.07270354556
0.07219544319
0.07164092221
0.07102298068
0.07033361338
0.06957551273
0.06874599948
0.06784725733
0.06687828131
0.06583302803
0.06470935048
0.06349987362
0.06219460438
0.06078042155
0.05923902212
0.0575462842
0.05566847403
0.05355744032
0.051134717
0.04828754688
0.04481399924
0.04039362241
0.03443977177
0.02604684646
0.01446179654
0.003303212686
0.08628650673
0.08579782727
0.08527196859
0.08519037243
0.08576991
0.08690913124
0.08824124606
0.08919069763
0.08903201168
0.08696049381
0.08466261341
0.0825079196
0.08128534807
0.0805588412
0.07999156114
0.07943252511
0.07882241733
0.07814253153
0.07738406005
0.07654996517
0.0756372991
0.07464846441
0.0735823554
0.07243232289
0.07119600462
0.06986528626
0.06842917303
0.06687322838
0.06517731457
0.06331489167
0.06124884433
0.05892619444
0.05626061026
0.0531280315
0.04930628531
0.044442797
0.037892115
0.02865785836
0.01591148923
0.003634336365
0.09433304381
0.09379879318
0.09322389623
0.09313469092
0.09376827252
0.09501373037
0.09647006984
0.09750806129
0.0973345773
0.09506988269
0.09255771642
0.0902020894
0.08886550854
0.08807125221
0.08745107118
0.08683990296
0.08617290037
0.08542961269
0.08460041092
0.0836885336
0.08269075803
0.08160971084
0.08044418321
0.0791869059
0.07783529636
0.07638048358
0.07481044745
0.07310940519
0.07125534112
0.06921924036
0.06696052644
0.06442128083
0.06150712103
0.05808241767
0.05390427946
0.04858725281
0.04142569539
0.03133031004
0.01739529467
0.003973251723
0.1025689241
0.10198803
0.1013629409
0.1012659473
0.1019548447
0.103309039
0.1048925263
0.106021141
0.1058325108
0.1033700938
0.1006385993
0.09807731089
0.09662403794
0.09576043793
0.09508611112
0.09442158399
0.09369634779
0.09288816633
0.09198656992
0.09099507986
0.08991019207
0.08873476252
0.08746747685
0.08610043115
0.08463081742
0.08304899014
0.08134187979
0.07949232562
0.07747638985
0.07526252443
0.07280661027
0.07004567222
0.06687708757
0.06315338561
0.05861046911
0.0528292319
0.04504242454
0.03406564725
0.01891401556
0.004320142107
0.1109986032
0.1103699679
0.1096935055
0.1095885405
0.1103340553
0.1117995447
0.1135131717
0.1147345422
0.1145304093
0.1118656173
0.1089096335
0.1061378444
0.1045651335
0.103630558
0.1029008113
0.1021816697
0.1013968296
0.1005222274
0.09954653279
0.09847355661
0.09729950677
0.09602747395
0.09465603576
0.09317663872
0.09158624404
0.08987441349
0.0880270034
0.08602544268
0.08384382621
0.08144801314
0.07879025843
0.07580241129
0.0723734149
0.06834367861
0.06342740022
0.0571710291
0.04874425903
0.03686534973
0.02046847352
0.004675195175
0.1196266411
0.1189491414
0.1182200969
0.1181069729
0.1189104372
0.1204898407
0.1223366697
0.1236529787
0.1234329783
0.1205610492
0.1173752937
0.1143880505
0.1126930911
0.1116858701
0.1108993995
0.1101243582
0.1092785116
0.1083359256
0.1072843893
0.1061280096
0.1048626996
0.1034917903
0.1020137488
0.1004193567
0.09870533895
0.09686044602
0.0948694348
0.09271229067
0.09036109486
0.08777905272
0.08491470795
0.08169461231
0.07799907643
0.07365610451
0.06835767864
0.06161499322
0.05253320147
0.03973093207
0.02205950946
0.005038603005
0.1284577056
0.1277301916
0.1269473276
0.1268258526
0.1276886302
0.1293846283
0.1313677936
0.132781275
0.1325450338
0.1294610935
0.1260401595
0.1228323923
0.1210123078
0.1199307319
0.1190862025
0.1182539462
0.1173456577
0.1163334882
0.1152043255
0.1139625796
0.1126038621
0.1111317497
0.1095445963
0.1078325032
0.1059919534
0.104010867
0.1018728756
0.09955648699
0.09703172148
0.09425906811
0.091183272
0.08772546282
0.08375711551
0.0790935372
0.07340397153
0.06616352834
0.05641130158
0.04266394449
0.02368798409
0.005410562191
0.1374965741
0.1367178689
0.135879919
0.1357498965
0.1366733831
0.1384887192
0.1406114292
0.1421243695
0.1418715053
0.1385705649
0.1349089184
0.1314754382
0.1295272843
0.1283696038
0.1274656494
0.1265748318
0.1256026319
0.1245192416
0.1233106258
0.1219815051
0.120527182
0.1189514851
0.1172526524
0.1154200886
0.1134500294
0.1113295447
0.1090411145
0.1065617343
0.1038593148
0.1008915649
0.0975993418
0.09389822543
0.08965064715
0.08465891826
0.07856900886
0.07081909516
0.06038065736
0.04566597369
0.0253547784
0.005791273958
0.1467481364
0.1459170355
0.1450227035
0.1448839323
0.1458695563
0.1478070388
0.1500725769
0.1516873166
0.1514174382
0.1478943915
0.1439863684
0.1403218638
0.1382426268
0.1370070509
0.1360422733
0.1350915163
0.1340539013
0.1328976142
0.1316076758
0.1301891241
0.1286369458
0.1269552269
0.125142087
0.1231862177
0.1210836015
0.1188204384
0.1163780294
0.1137318222
0.1108475683
0.1076801311
0.1041663883
0.1002162395
0.09568285963
0.09035525844
0.08385558482
0.07558421224
0.06444341615
0.04873864372
0.02706079409
0.006180944264
0.1562173975
0.1553326678
0.154380627
0.1542329012
0.155282125
0.1573446279
0.1597563551
0.1614752896
0.1611879966
0.1574376173
0.15327742
0.1493764548
0.1471630503
0.145847746
0.1448207139
0.1438086071
0.1427040376
0.1414731384
0.1400999638
0.1385898768
0.1369375406
0.1351473049
0.133217168
0.1311350917
0.1288967994
0.1264876005
0.1238875895
0.1210706296
0.1180002626
0.1146284393
0.1108879641
0.1066829228
0.1018570162
0.0961856393
0.0892665593
0.08046145737
0.0686017758
0.0518836168
0.02880695407
0.006579783908
0.1659094799
0.1649698595
0.163958752
0.163801861
0.1649161809
0.1671066463
0.1696680024
0.1714935836
0.1711884663
0.1672054049
0.1627870995
0.1586441095
0.1562933804
0.1548964716
0.1538057201
0.15273082
0.1515577204
0.1502504534
0.1487920839
0.1471883077
0.1454334568
0.1435321509
0.1414822638
0.1392710109
0.1368938498
0.1343351787
0.1315738571
0.1285821267
0.1253212671
0.1217402482
0.1177677054
0.1133017738
0.108176457
0.102153215
0.09480485952
0.08545346907
0.07285798589
0.05510259431
0.03059420298
0.006988008657
0.1758296269
0.1748338243
0.17376226
0.1735959881
0.1747769361
0.1770983749
0.179812881
0.1817476182
0.1814242572
0.1772030385
0.1725205515
0.1681298417
0.1656385565
0.164158123
0.1630021527
0.1618629816
0.1606197394
0.1592343077
0.1576887386
0.1559890685
0.1541292907
0.1521143008
0.1499418459
0.1475983765
0.145079079
0.1423674185
0.1394409904
0.1362703769
0.1328145423
0.1290194052
0.1248093341
0.1200763731
0.1146446007
0.1082612138
0.1004734816
0.09056294789
0.07721434895
0.05839731765
0.03242350767
0.00740583935
0.1859832051
0.1849298982
0.1837964547
0.1836205811
0.1848697249
0.1873252191
0.190196479
0.1922429408
0.1919009068
0.1874359267
0.1824830416
0.1778387828
0.1752036342
0.1736377106
0.1724149868
0.1712100323
0.1698949971
0.1684295612
0.1667947406
0.1649969203
0.1630297464
0.1608983976
0.1586004906
0.1561216936
0.153456915
0.1505886651
0.1474932455
0.1441395395
0.140484142
0.1364698483
0.1320166595
0.1270103858
0.1212649464
0.1145129401
0.1062754922
0.095792658
0.0816732217
0.06176956921
0.03429585779
0.007833502029
0.1963757074
0.195263543
0.1940667641
0.193881063
0.1952000073
0.1977927114
0.2008244136
0.2029852291
0.2026240827
0.1979096052
0.1926799592
0.1877761853
0.1849937879
0.1833403625
0.1820493145
0.1807770287
0.179388511
0.1778411885
0.1761150162
0.1742167359
0.1721396389
0.1698891931
0.167462882
0.164845573
0.16203189
0.159003366
0.1557349784
0.1521938716
0.1483342151
0.1440956079
0.1393935806
0.1341075627
0.1280410757
0.1209117759
0.11221403
0.1011454285
0.08623701628
0.06522117328
0.03621226621
0.008271228046
0.2070127558
0.2058403491
0.2045787445
0.2043829845
0.2057733718
0.2085065145
0.2117024343
0.2139802943
0.2135995857
0.2086297401
0.2031168207
0.1979474249
0.1950143139
0.1932713277
0.1919103477
0.1905691463
0.1891054169
0.1874742809
0.1856546073
0.1836535033
0.1814638965
0.1790915512
0.1765338145
0.1737747342
0.1708086429
0.1676160734
0.1641706476
0.1604377303
0.1563690085
0.1519008093
0.1469440882
0.1413717435
0.1349766541
0.1274611828
0.1182923076
0.1066241552
0.09090820159
0.06875399711
0.03817376967
0.008719254203
0.2179001049
0.2166660382
0.2153380824
0.2151320269
0.2165955384
0.2194724243
0.222836426
0.2252340847
0.2248333537
0.2196021306
0.2137992722
0.2083580042
0.2052706332
0.2034359787
0.2020034212
0.2005916824
0.1990509716
0.1973340498
0.1954186748
0.1933123274
0.1910075634
0.1885104501
0.1858181953
0.1829140077
0.1797919218
0.1764314466
0.1728048167
0.1688755755
0.1645928688
0.1598896752
0.1546722669
0.1488068579
0.1420754338
0.134164704
0.1245136134
0.1122318019
0.09568930467
0.07236995191
0.04018142931
0.009177822874
0.2290436444
0.2277464668
0.2263505987
0.2261340053
0.2276723617
0.2306963731
0.2342324119
0.2367526883
0.2363314636
0.2308327128
0.2247330928
0.2190135551
0.2157682941
0.2138398143
0.212333995
0.210850059
0.2092305554
0.2074258292
0.2054125008
0.2031984335
0.2007758026
0.1981509855
0.1953210471
0.1922683376
0.1889865865
0.1854542546
0.1816421567
0.1775119717
0.1730102449
0.1680665272
0.1625822977
0.1564169282
0.1493412551
0.1410259659
0.1308813128
0.1179714022
0.100582912
0.07607099383
0.04223633125
0.009647182135
0.2404494029
0.2390876293
0.2376222507
0.2373948715
0.2390098339
0.242184433
0.245896557
0.2485423364
0.2481001359
0.242327562
0.2359241973
0.2299198421
0.2265129757
0.2244884629
0.2229076578
0.2213498258
0.2196496752
0.2177550785
0.2156414918
0.2133171699
0.2107738984
0.2080183724
0.2050475108
0.2018427846
0.198397611
0.1946893785
0.1906874483
0.1863515913
0.1816256906
0.176435789
0.1706784595
0.1642060712
0.1567780486
0.1480486803
0.1373988508
0.1238460613
0.1055916709
0.07985912505
0.04433958713
0.0101275859
0.2521235504
0.2506956609
0.2491591361
0.2489207174
0.2506140885
0.2539428187
0.2578351714
0.260609407
0.260145737
0.2540928968
0.24737864
0.241082765
0.2375104907
0.235387685
0.2337301296
0.2320966627
0.2303139676
0.2283273856
0.2261111813
0.2236740104
0.2210072596
0.2181179491
0.215002848
0.211642528
0.2080300865
0.2041418142
0.1999455849
0.195399216
0.1904438664
0.185001988
0.1789651323
0.1721785007
0.1643898374
0.1552366463
0.144069753
0.129858957
0.1107182911
0.08373639485
0.04649233476
0.01061929405
0.2640724026
0.2625768413
0.2609674962
0.2607177782
0.2624914029
0.2659778911
0.2700547135
0.272960428
0.2724747834
0.2661350819
0.2591026173
0.252508363
0.2487667884
0.2465433768
0.2448072652
0.2430963837
0.2412292015
0.2391484698
0.2368272333
0.2342745579
0.2314814222
0.2284551791
0.2251924445
0.2216728693
0.217889224
0.2138166754
0.2094215749
0.2046597406
0.1994695429
0.1937697584
0.1874467989
0.1803385295
0.1721807393
0.1625937525
0.1508976284
0.1360133424
0.1159655458
0.08770490077
0.04869573874
0.0111225726
0.2763024235
0.2747375981
0.2730537192
0.272792436
0.2746482028
0.2782961612
0.282561794
0.2856020813
0.285093945
0.2784606319
0.2711024719
0.264202817
0.2602879583
0.2579615736
0.2561450572
0.2543549394
0.2524012822
0.2502241852
0.247795445
0.2451245473
0.2422020527
0.2390356547
0.2356218127
0.2319392349
0.2279803572
0.2237191961
0.2191205446
0.2141381749
0.2087076028
0.2027438435
0.1961280479
0.1886905723
0.1801549692
0.170123979
0.1578861706
0.1423125467
0.1213362738
0.09176678972
0.05095099108
0.01163769381
0.2888202293
0.2871845099
0.2854243433
0.2851512227
0.2870910646
0.2909042928
0.2953631789
0.2985412055
0.2980100482
0.2910762148
0.2833846953
0.2761724534
0.2720802332
0.2696484522
0.2677496391
0.2658784205
0.2638362533
0.2615605236
0.2590217499
0.2562298479
0.2531749505
0.2498650997
0.2462965945
0.2424471786
0.2383089449
0.2338547331
0.229047741
0.2238396464
0.2181630437
0.2119290979
0.2050135755
0.1972391471
0.1883168409
0.1778313994
0.1650391605
0.1487599777
0.1268333805
0.09592425905
0.05325931181
0.01216493635
0.3016325919
0.2999243102
0.2980860609
0.2978008244
0.2998267196
0.3038091065
0.3084657934
0.3117848006
0.3112300806
0.3039886551
0.295955932
0.2884237476
0.2841499922
0.281610335
0.2796272885
0.2776730607
0.275540301
0.2731636175
0.2705122212
0.2675964676
0.2644060518
0.2609493726
0.2572225649
0.2532023849
0.2488805749
0.2442287697
0.2392085345
0.2337694034
0.2278409808
0.2213304907
0.2141081887
0.2059888786
0.1966707697
0.1857201832
0.1723604674
0.1553591234
0.1324598398
0.1001795579
0.05562194968
0.01270458544
0.3147464424
0.3129638911
0.3110457216
0.3107480841
0.3128620576
0.3170175837
0.3218767258
0.325340031
0.3247611938
0.3172049385
0.3088229827
0.3009633273
0.2965037651
0.2938536931
0.2917844313
0.289745241
0.2875197569
0.2850397441
0.2822730751
0.2792305555
0.2759014324
0.2722944698
0.2684056345
0.2642106722
0.2597009662
0.2548469179
0.2496084218
0.2439328178
0.2377466497
0.230953108
0.2234168074
0.2149445002
0.205221275
0.1937945983
0.1798540522
0.1621135537
0.1382186954
0.1045349882
0.05804018284
0.01325693303
0.3281688753
0.3263103067
0.3243103364
0.324000006
0.3262041304
0.3305368699
0.3356032312
0.3392142298
0.338610708
0.3307322144
0.3219928083
0.3137979761
0.3091482349
0.30638515
0.304227644
0.302101492
0.2997811016
0.2971953282
0.2943106739
0.2911384053
0.2876673111
0.2839065288
0.2798518532
0.2754779958
0.2707759723
0.2657149221
0.2602530291
0.2543353877
0.247885409
0.2408021552
0.2329444674
0.2241108568
0.2139729825
0.2020590125
0.1875239688
0.1690269227
0.1441130628
0.1089929063
0.06051531949
0.01382227793
0.3419071517
0.339970777
0.3378870811
0.3375637593
0.3398601559
0.3443742787
0.3496527353
0.3534149027
0.3527861154
0.344577801
0.3354725333
0.3269346373
0.3220902419
0.3192114848
0.3169636582
0.3147484982
0.3123309683
0.3096369455
0.3066315297
0.303326459
0.2997100529
0.2957918313
0.291567413
0.2870104509
0.2821115847
0.2768386615
0.2711481149
0.2649827407
0.2582627438
0.2508829606
0.242696323
0.2334929071
0.2229306265
0.2105178968
0.1953743663
0.1761029703
0.1501461306
0.1135557238
0.06304869864
0.01440092596
0.3559687037
0.3539526922
0.3517833005
0.3514466814
0.3538375215
0.3585372959
0.3640328386
0.3679497319
0.3672950846
0.3587491884
0.34926945
0.3403804175
0.3353367877
0.3323396364
0.3299993638
0.3276931014
0.3251761461
0.3223713268
0.3192423078
0.3158013101
0.3120361727
0.3079568071
0.303558652
0.2988142766
0.2937139355
0.2882241538
0.2822995732
0.2758806368
0.2688842678
0.2612009776
0.2526776497
0.2430957266
0.2320990531
0.2191758274
0.2034094916
0.1833455246
0.1563211627
0.118225909
0.06564169079
0.01499319017
0.3703611385
0.3682636161
0.3660065121
0.365656283
0.3681437889
0.3730335833
0.3787513203
0.3828265805
0.3821454647
0.373254043
0.3633910223
0.3541425907
0.3488950381
0.3457767068
0.343341813
0.3409423043
0.3383235842
0.335405361
0.3321498304
0.3285697072
0.3246523387
0.3204080373
0.3158320571
0.3108958583
0.3055893016
0.2998775584
0.2937134367
0.2870349715
0.2797557271
0.2717617881
0.2628938472
0.2529245103
0.2414832221
0.2280374879
0.2116336917
0.1907585035
0.1626414996
0.1230059884
0.06829569869
0.01559939097
0.385092242
0.3829112907
0.3805644104
0.3802002509
0.3827866973
0.3878709831
0.393816143
0.3980534966
0.3973452894
0.3881002116
0.3778448896
0.3682286019
0.3627723281
0.3595299653
0.3569982235
0.3545032745
0.3517803948
0.3487460995
0.3453610802
0.3416385577
0.337565376
0.3331522576
0.3283942679
0.323261732
0.3177441071
0.3118051795
0.30539588
0.2984517791
0.290883003
0.2825711053
0.2733504423
0.2629845753
0.2510882102
0.2371076723
0.2200514156
0.1983459174
0.1691105605
0.127898548
0.07101215811
0.01621985629
0.4001699833
0.39790364
0.395464871
0.3950864533
0.3977741684
0.4030575222
0.4092354564
0.4136387175
0.4129027815
0.4032957258
0.3926388712
0.3826460713
0.3769761648
0.3736068519
0.3709759834
0.3683833481
0.365553858
0.3624007591
0.3588832042
0.3550149316
0.3507822702
0.3461963625
0.3412520804
0.3359185873
0.3301849276
0.3240134698
0.3173532232
0.3101372358
0.302272115
0.2936347768
0.2840530917
0.2732813639
0.2609192135
0.2463912874
0.2286672171
0.2061118709
0.175731845
0.1329062346
0.07379253859
0.01685492179
0.4156025194
0.4132487746
0.4107159546
0.4103229433
0.4131143099
0.418601416
0.425017602
0.4295906746
0.4288263573
0.418848806
0.4077809702
0.3974027986
0.3915142324
0.388014982
0.3852826543
0.3825900341
0.3796514249
0.3763767269
0.3727235177
0.3687060653
0.3643101715
0.3595474084
0.3544124504
0.3488732714
0.3429184934
0.3365090336
0.3295919349
0.3220976633
0.3139292245
0.3049587877
0.2950075855
0.2838204465
0.2709815503
0.2558933555
0.2374857573
0.2140605652
0.1825089351
0.1380317571
0.07663834427
0.01750493104
0.4313981988
0.428954996
0.4263259118
0.4259179635
0.4288154207
0.4345110736
0.4411711176
0.4459179977
0.4451246311
0.434767866
0.4232793784
0.4125067667
0.4063943955
0.4027621503
0.3999259757
0.397131018
0.3940807219
0.3906815634
0.3868895078
0.3827193653
0.3781563981
0.3732126182
0.3678824974
0.3621327924
0.355951693
0.3492986308
0.342118636
0.3343395319
0.3258606377
0.3165492643
0.3062198497
0.2946075245
0.2812806643
0.265619017
0.2465118068
0.2221963005
0.1894454971
0.1432778884
0.07955111468
0.01817023566
0.4475655667
0.4450308007
0.4423031872
0.4418799503
0.4448859946
0.4507951016
0.4577047419
0.4626295192
0.4618064199
0.4510615178
0.4391424799
0.4279661466
0.4216247041
0.4178563344
0.4149138695
0.412014166
0.408849555
0.4053230074
0.4013888381
0.3970624126
0.3923284406
0.3871993842
0.3816695082
0.3757043235
0.3692915771
0.3623891802
0.3549401032
0.3468694642
0.3380728092
0.3284124765
0.3176959499
0.3056484334
0.2918221269
0.2755735331
0.2557502483
0.2305234778
0.1965452834
0.1486474665
0.08253242553
0.01885119558
0.4641133692
0.4614848856
0.4586564243
0.4582175391
0.4613347256
0.4674623095
0.4746274193
0.47973428
0.4788807483
0.4677385758
0.4553788564
0.4437893015
0.4372133974
0.4333057001
0.4302544437
0.4272475297
0.4239659138
0.4203089795
0.4162293525
0.4117429665
0.4068339657
0.4015152732
0.3957809416
0.3895952066
0.3829453622
0.3757877637
0.3680632726
0.3596942385
0.3505723456
0.3405548423
0.3294420944
0.3169491462
0.3026116408
0.2857622893
0.2652060799
0.2390466022
0.203812135
0.1541433963
0.08558388968
0.01954817919
0.4810505585
0.4783261519
0.4753944698
0.474939568
0.4781705121
0.4845217138
0.4919483046
0.4972415333
0.4963568531
0.4848080621
0.4719972915
0.4599847914
0.4531689086
0.4491186052
0.4459559973
0.4428393501
0.4394379761
0.4356475869
0.4314190795
0.4267689688
0.4216808207
0.4161680297
0.4102244314
0.4038129564
0.396920435
0.3895016295
0.3814952436
0.372820793
0.3633660089
0.3529829304
0.3414646378
0.3285157763
0.3136550431
0.2961907973
0.2748844169
0.2477702845
0.211249983
0.1597686509
0.08870715791
0.02026156353
0.4983862971
0.4955637104
0.4925263785
0.4920550834
0.4954024618
0.5019825434
0.509676768
0.5151607501
0.5142441885
0.5022792109
0.4890067753
0.4765613778
0.4694998693
0.4653036041
0.4620270245
0.4587980619
0.4552741117
0.4513471273
0.4469662361
0.4421485483
0.4368770373
0.4311655805
0.4250077913
0.4183652643
0.4112243554
0.4035381966
0.3952432826
0.3862562286
0.3764607202
0.365703464
0.3537700839
0.3403545811
0.3249583079
0.3068646987
0.284790495
0.2566992438
0.2188628512
0.1655262735
0.09190391983
0.02099173454
0.5161299634
0.5132068863
0.5100614186
0.5095733443
0.5130398968
0.519854244
0.5278224003
0.5335016244
0.5325524311
0.5201614735
0.5064165096
0.4935280281
0.4862151142
0.4818694525
0.4784762194
0.4751322985
0.4714828878
0.467416094
0.4628792333
0.457890025
0.4524308365
0.446516039
0.4401390187
0.433260003
0.4258648617
0.4179050585
0.409314827
0.4000078138
0.3898635634
0.3787233248
0.3663650897
0.352471965
0.3365275501
0.317789768
0.2949296732
0.2658383107
0.2266548579
0.1714193789
0.09517590481
0.02173908721
0.5342911563
0.5312652241
0.5280090761
0.5275038278
0.5310923587
0.5381464841
0.5463950179
0.5522740782
0.5512914854
0.5384645242
0.5242359128
0.5108939211
0.5033236859
0.4988251123
0.4953124806
0.4918508964
0.488073073
0.4838631799
0.4791666795
0.4740019147
0.4683506324
0.4622277095
0.4556262994
0.44850523
0.4408498741
0.4326099873
0.4237174892
0.4140829878
0.4035817892
0.3920495563
0.3792564689
0.3648744833
0.3483690284
0.3289719153
0.3053074367
0.2751924292
0.2346302186
0.177451155
0.09852488295
0.02250402586
0.5528797005
0.5497484931
0.5463790602
0.5458562339
0.5495696135
0.5568691592
0.565404668
0.571488267
0.5704714888
0.5571982642
0.5424746247
0.5286684513
0.5208348397
0.5161797561
0.5125449163
0.5089629
0.5050536421
0.5006972825
0.495837386
0.4904929336
0.4846450373
0.4783090916
0.4714780116
0.4641091928
0.4561874991
0.4476609381
0.4384590607
0.4284893651
0.4176228188
0.4056893676
0.3924511953
0.3775688456
0.3604891487
0.3404171899
0.3159293995
0.2847666597
0.2427932476
0.183624865
0.101952666
0.02328696429
0.5719056523
0.5686666922
0.5651813089
0.5646404908
0.568481657
0.576032398
0.5848616347
0.5911545853
0.5901028173
0.5763728284
0.5611425121
0.5468612343
0.5387580488
0.5339427723
0.5301828488
0.5264775665
0.5224337814
0.5179275087
0.5129003712
0.5073720031
0.5013228663
0.494768885
0.4877027308
0.4800803328
0.4718860341
0.4630660531
0.4535475165
0.4432347391
0.4319942482
0.4196501375
0.4059564072
0.3905619191
0.3728944678
0.3521317835
0.326801308
0.2945661815
0.251148361
0.1899438487
0.1054611082
0.02408832607
0.5902931368
0.5869500401
0.5833525974
0.5827943913
0.5867590558
0.5945525626
0.6036656703
0.6101609472
0.6090753635
0.5949039382
0.5791839481
0.5644435093
0.5560797963
0.5511097026
0.5472288928
0.543404481
0.5392306832
0.5345795282
0.5293907619
0.5236846498
0.5174410256
0.5106763257
0.5033829857
0.495515518
0.4870577624
0.477954208
0.4681296384
0.4574852923
0.4458834055
0.4331424162
0.4190084152
0.403118975
0.384883493
0.3634532623
0.3373083802
0.304036854
0.259223096
0.1960507818
0.1088518152
0.02486279599
0.5902931368
0.5869500401
0.5833525974
0.5827943913
0.5867590558
0.5945525626
0.6036656703
0.6101609472
0.6090753635
0.5949039382
0.5791839481
0.5644435093
0.5560797963
0.5511097026
0.5472288928
0.543404481
0.5392306832
0.5345795282
0.5293907619
0.5236846498
0.5174410256
0.5106763257
0.5033829857
0.495515518
0.4870577624
0.477954208
0.4681296384
0.4574852923
0.4458834055
0.4331424162
0.4190084152
0.403118975
0.384883493
0.3634532623
0.3373083802
0.304036854
0.259223096
0.1960507818
0.1088518152
0.02486279599
0.5902931368
0.5869500401
0.5833525974
0.5827943913
0.5867590558
0.5945525626
0.6036656703
0.6101609472
0.6090753635
0.5949039382
0.5791839481
0.5644435093
0.5560797963
0.5511097026
0.5472288928
0.543404481
0.5392306832
0.5345795282
0.5293907619
0.5236846498
0.5174410256
0.5106763257
0.5033829857
0.495515518
0.4870577624
0.477954208
0.4681296384
0.4574852923
0.4458834055
0.4331424162
0.4190084152
0.403118975
0.384883493
0.3634532623
0.3373083802
0.304036854
0.259223096
0.1960507818
0.1088518152
0.02486279599
0.5902931368
0.5869500401
0.5833525974
0.5827943913
0.5867590558
0.5945525626
0.6036656703
0.6101609472
0.6090753635
0.5949039382
0.5791839481
0.5644435093
0.5560797963
0.5511097026
0.5472288928
0.543404481
0.5392306832
0.5345795282
0.5293907619
0.5236846498
0.5174410256
0.5106763257
0.5033829857
0.495515518
0.4870577624
0.477954208
0.4681296384
0.4574852923
0.4458834055
0.4331424162
0.4190084152
0.403118975
0.384883493
0.3634532623
0.3373083802
0.304036854