/*--------------------------------*- C++ -*----------------------------------*\
| =========                 |                                                 |
| \\      /  F ield         | foam-extend: Open Source CFD                    |
|  \\    /   O peration     | Version:     3.2                                |
|   \\  /    A nd           | Web:         http://www.foam-extend.org         |
|    \\/     M anipulation  | For copyright notice see file Copyright         |
\*---------------------------------------------------------------------------*/
FoamFile
{
    version     2.0;
    format      ascii;
    class       volVectorField;
    location    "0";
    object      tppsi;
}
// * * * * * * * * * * * * * * * * * * * * * * * * * * * * * * * * * * * * * //

dimensions      [0 0 0 0 0 0 0];

internalField   nonuniform List<vector> 
18000
(
(9.885864237e-07 -5.936368109e-09 0.000228820248)
(9.438582709e-07 -1.41973484e-08 0.0005105110655)
(9.164314138e-07 -2.201271055e-08 0.0007776981637)
(9.117203214e-07 -2.815084979e-08 0.0009980056847)
(7.394598858e-07 -3.223248882e-08 0.001171069998)
(4.32327285e-07 -3.446121547e-08 0.001303135682)
(9.360832215e-08 -3.5578247e-08 0.001402196641)
(-1.665127961e-07 -3.672227645e-08 0.001475797965)
(-3.713715011e-07 -4.00240093e-08 0.001531177245)
(-3.837222861e-07 -4.582287294e-08 0.001575041743)
(-2.453064522e-07 -4.508663917e-08 0.001599830234)
(-3.746307349e-07 -3.748416426e-08 0.001623402155)
(-3.977718486e-07 -2.949352275e-08 0.001641196664)
(-3.562887478e-07 -2.319581759e-08 0.001653425435)
(-2.905173577e-07 -1.891104221e-08 0.001661277634)
(-2.209848095e-07 -1.607516491e-08 0.001665666082)
(-1.563349096e-07 -1.404568594e-08 0.001667115106)
(-9.989528167e-08 -1.237811008e-08 0.001666111017)
(-5.266123677e-08 -1.082908157e-08 0.001662914374)
(-1.421576274e-08 -9.304733866e-09 0.001657832308)
(1.597618288e-08 -7.812815766e-09 0.001650973105)
(3.895392616e-08 -6.394764175e-09 0.001642506644)
(5.562632651e-08 -5.085945138e-09 0.001632494664)
(6.672498371e-08 -3.91910664e-09 0.001620915485)
(7.314918667e-08 -2.912295266e-09 0.001607776195)
(7.558356928e-08 -2.077126281e-09 0.00159300138)
(7.468021706e-08 -1.412192471e-09 0.001576436785)
(7.105547719e-08 -9.097521655e-10 0.001557887144)
(6.526652352e-08 -5.548922271e-10 0.001537048085)
(5.783167641e-08 -3.310722208e-10 0.001513497542)
(4.924670426e-08 -2.245931601e-10 0.001486664236)
(3.998536743e-08 -2.224745313e-10 0.001455756745)
(3.048891014e-08 -3.106997698e-10 0.001419526179)
(2.118222161e-08 -4.69414249e-10 0.001376273916)
(1.246423617e-08 -6.719281908e-10 0.001323126534)
(4.700315779e-09 -8.709061152e-10 0.001255686936)
(-1.741809519e-09 -9.758638978e-10 0.001165472036)
(-6.311985554e-09 -8.191558961e-10 0.001034755224)
(-7.450186842e-09 -1.628194738e-10 0.0008132435769)
(-2.762312527e-09 8.237586344e-10 0.0003915521584)
(2.98902172e-06 -1.794879314e-08 0.0006918451183)
(2.853784763e-06 -4.292612331e-08 0.001543546044)
(2.770858809e-06 -6.655611323e-08 0.002351394524)
(2.756614675e-06 -8.511496764e-08 0.003017501148)
(2.235779904e-06 -9.745592988e-08 0.003540766469)
(1.307154958e-06 -1.04194554e-07 0.00394007116)
(2.830276659e-07 -1.075719335e-07 0.004239585042)
(-5.034566046e-07 -1.110309421e-07 0.004462120929)
(-1.122853254e-06 -1.210138338e-07 0.004629561901)
(-1.160196236e-06 -1.385468778e-07 0.00476218757)
(-7.416916681e-07 -1.363208522e-07 0.004837136342)
(-1.132707649e-06 -1.133345335e-07 0.004908406778)
(-1.202675524e-06 -8.917458099e-08 0.004962209026)
(-1.077250082e-06 -7.013327406e-08 0.004999183097)
(-8.783882434e-07 -5.71781228e-08 0.005022924464)
(-6.681544271e-07 -4.86037598e-08 0.00503619307)
(-4.726834489e-07 -4.246756716e-08 0.005040574242)
(-3.020364831e-07 -3.742559983e-08 0.005037538345)
(-1.59222883e-07 -3.274206407e-08 0.005027873198)
(-4.298179965e-08 -2.81331515e-08 0.005012507412)
(4.830448454e-08 -2.362229084e-08 0.0049917684)
(1.177784042e-07 -1.933476786e-08 0.004966169792)
(1.681879239e-07 -1.53775129e-08 0.004935898259)
(2.017450582e-07 -1.184954051e-08 0.004900888254)
(2.211688352e-07 -8.805415083e-09 0.004861161203)
(2.285292665e-07 -6.280255746e-09 0.00481648909)
(2.25797953e-07 -4.269807745e-09 0.004766405525)
(2.148384396e-07 -2.750663895e-09 0.004710320109)
(1.973353586e-07 -1.677733863e-09 0.004647312567)
(1.748558677e-07 -1.00100713e-09 0.00457610677)
(1.488989381e-07 -6.790643868e-10 0.004494975438)
(1.208969989e-07 -6.726586469e-10 0.00440152568)
(9.218416565e-08 -9.394103925e-10 0.004291981439)
(6.404510415e-08 -1.419288544e-09 0.004161206879)
(3.768600472e-08 -2.03159573e-09 0.004000514123)
(1.421155057e-08 -2.633211657e-09 0.003796608407)
(-5.266415115e-09 -2.950554769e-09 0.003523840855)
(-1.908448413e-08 -2.476743264e-09 0.00312861452)
(-2.252587104e-08 -4.922897302e-10 0.002458867183)
(-8.351937618e-09 2.490659786e-09 0.001183870098)
(5.036529304e-06 -3.02438828e-08 0.001165765437)
(4.808653777e-06 -7.233091566e-08 0.002600889391)
(4.668922777e-06 -1.121476677e-07 0.003962121568)
(4.644921279e-06 -1.434195094e-07 0.005084517404)
(3.767309862e-06 -1.642141452e-07 0.00596622432)
(2.20256822e-06 -1.755687893e-07 0.006639056425)
(4.769042405e-07 -1.812597051e-07 0.007143740093)
(-8.483290453e-07 -1.870881665e-07 0.007518715125)
(-1.892018141e-06 -2.039094316e-07 0.007800854715)
(-1.954941411e-06 -2.334527734e-07 0.008024330196)
(-1.249757335e-06 -2.297018995e-07 0.008150619573)
(-1.908622887e-06 -1.909697394e-07 0.008270710918)
(-2.026519406e-06 -1.502599955e-07 0.008361368204)
(-1.815176373e-06 -1.181752169e-07 0.008423669856)
(-1.480092332e-06 -9.63456669e-08 0.008463674279)
(-1.125846403e-06 -8.189778577e-08 0.008486032004)
(-7.964759927e-07 -7.155824429e-08 0.008493414319)
(-5.089342736e-07 -6.306248261e-08 0.008488298805)
(-2.682920338e-07 -5.517068144e-08 0.008472012943)
(-7.242473081e-08 -4.740462104e-08 0.00844612145)
(8.139350419e-08 -3.980377902e-08 0.008411176023)
(1.984577027e-07 -3.257926306e-08 0.008368042132)
(2.833982106e-07 -2.591125178e-08 0.008317034317)
(3.39942293e-07 -1.996658558e-08 0.008258042134)
(3.726715373e-07 -1.483720603e-08 0.008191101686)
(3.850739323e-07 -1.058228914e-08 0.008115828761)
(3.804716438e-07 -7.194665628e-09 0.008031437489)
(3.620047621e-07 -4.634894159e-09 0.007936933044)
(3.325119083e-07 -2.826997109e-09 0.007830764751)
(2.946337578e-07 -1.686706293e-09 0.007710782324)
(2.508960908e-07 -1.144229786e-09 0.007574075277)
(2.037125637e-07 -1.133436055e-09 0.007416611569)
(1.553311736e-07 -1.582915219e-09 0.007232028508)
(1.079165941e-07 -2.391514352e-09 0.007011672162)
(6.350126726e-08 -3.423257635e-09 0.006740903378)
(2.394659444e-08 -4.436986049e-09 0.006397320356)
(-8.873958284e-09 -4.971712134e-09 0.005937704503)
(-3.215753266e-08 -4.173335356e-09 0.005271744466)
(-3.795630149e-08 -8.295127584e-10 0.004143213995)
(-1.40730923e-08 4.196784826e-09 0.001994832088)
(7.132216831e-06 -4.282828849e-08 0.001650837585)
(6.809522856e-06 -1.024276328e-07 0.003683113107)
(6.611650128e-06 -1.58812038e-07 0.005610750664)
(6.577661666e-06 -2.030960166e-07 0.007200172663)
(5.334878284e-06 -2.325432494e-07 0.008448755671)
(3.119051471e-06 -2.486225333e-07 0.009401551569)
(6.753429288e-07 -2.566814251e-07 0.01011623288)
(-1.201316687e-06 -2.649350951e-07 0.0106472341)
(-2.679282264e-06 -2.887556474e-07 0.01104677129)
(-2.768387752e-06 -3.305919015e-07 0.01136323437)
(-1.769778307e-06 -3.252802983e-07 0.01154207245)
(-2.702796204e-06 -2.70431781e-07 0.01171213351)
(-2.869749175e-06 -2.127828123e-07 0.01184051307)
(-2.570466823e-06 -1.673476356e-07 0.01192873829)
(-2.095955132e-06 -1.364348633e-07 0.01198538845)
(-1.594308338e-06 -1.159752542e-07 0.01201704917)
(-1.127887706e-06 -1.013334548e-07 0.01202750325)
(-7.207005804e-07 -8.930262742e-08 0.01202025918)
(-3.79927693e-07 -7.812706709e-08 0.01199719681)
(-1.025604842e-07 -6.712956794e-08 0.01196053193)
(1.152611423e-07 -5.636603414e-08 0.0119110458)
(2.810354676e-07 -4.613541476e-08 0.011849964)
(4.013195131e-07 -3.669286028e-08 0.01177773196)
(4.813914499e-07 -2.827463302e-08 0.01169419327)
(5.277392527e-07 -2.101093118e-08 0.01159939907)
(5.453022539e-07 -1.498555378e-08 0.01149280526)
(5.387849645e-07 -1.01883484e-08 0.01137329899)
(5.126340584e-07 -6.563462285e-09 0.01123947148)
(4.708693003e-07 -4.003303694e-09 0.01108912682)
(4.17230144e-07 -2.388540657e-09 0.01091921999)
(3.552933407e-07 -1.620341002e-09 0.01072562948)
(2.884768633e-07 -1.605056026e-09 0.01050264551)
(2.199640951e-07 -2.241562371e-09 0.01024125789)
(1.528204251e-07 -3.386617627e-09 0.009929211804)
(8.992398929e-08 -4.847666767e-09 0.009545776791)
(3.391071383e-08 -6.283205095e-09 0.009059229713)
(-1.256639063e-08 -7.040429396e-09 0.008408368828)
(-4.553820337e-08 -5.909849994e-09 0.007465304448)
(-5.374982573e-08 -1.174670989e-09 0.005867195208)
(-1.99288716e-08 5.943056729e-09 0.002824876842)
(9.277218029e-06 -5.57088181e-08 0.002147323976)
(8.857474429e-06 -1.332325565e-07 0.004790802653)
(8.600091839e-06 -2.065744686e-07 0.007298173688)
(8.555881409e-06 -2.64176773e-07 0.009365611453)
(6.939333193e-06 -3.024802074e-07 0.01098970352)
(4.05710051e-06 -3.233953065e-07 0.01222905105)
(8.784510824e-07 -3.338778954e-07 0.01315867146)
(-1.562610488e-06 -3.446138416e-07 0.01384937033)
(-3.485071515e-06 -3.755983815e-07 0.01436906759)
(-3.600975317e-06 -4.300168127e-07 0.01478070637)
(-2.302035903e-06 -4.231077544e-07 0.01501332967)
(-3.51565723e-06 -3.517636457e-07 0.01523453629)
(-3.732821003e-06 -2.767768548e-07 0.01540152577)
(-3.34353003e-06 -2.176771317e-07 0.01551628456)
(-2.726309813e-06 -1.774673995e-07 0.01558997216)
(-2.073793662e-06 -1.508546002e-07 0.01563115478)
(-1.467097875e-06 -1.318093064e-07 0.0156447529)
(-9.374499649e-07 -1.161602297e-07 0.0156353302)
(-4.941902534e-07 -1.016236399e-07 0.01560533186)
(-1.334053627e-07 -8.7318663e-08 0.01555764009)
(1.499257205e-07 -7.331801605e-08 0.01549327109)
(3.655563716e-07 -6.001055656e-08 0.01541381905)
(5.220156244e-07 -4.772817106e-08 0.01531986335)
(6.261690501e-07 -3.677817731e-08 0.01521120056)
(6.864558699e-07 -2.73299304e-08 0.01508789717)
(7.093009117e-07 -1.949243174e-08 0.01494924547)
(7.008235594e-07 -1.325247559e-08 0.01479379791)
(6.66807816e-07 -8.537411591e-09 0.01461972201)
(6.124823831e-07 -5.207289975e-09 0.01442416147)
(5.427113484e-07 -3.106889901e-09 0.01420315548)
(4.621471646e-07 -2.107655602e-09 0.01395134297)
(3.752357535e-07 -2.087773697e-09 0.01366129698)
(2.861178953e-07 -2.915708163e-09 0.01332129751)
(1.98780889e-07 -4.405136698e-09 0.01291540414)
(1.16968465e-07 -6.305593701e-09 0.01241665174)
(4.410929914e-08 -8.172867562e-09 0.01178377652)
(-1.634570968e-08 -9.15782569e-09 0.01093717041)
(-5.923373494e-08 -7.687226595e-09 0.009710481138)
(-6.991498774e-08 -1.527951145e-09 0.00763174346)
(-2.592244336e-08 7.730420196e-09 0.003674453398)
(1.14726933e-05 -6.889243974e-08 0.0026554932)
(1.09536164e-05 -1.647623515e-07 0.005924557267)
(1.063532362e-05 -2.554607981e-07 0.009025303501)
(1.058065069e-05 -3.26694822e-07 0.01158200523)
(8.581542567e-06 -3.740628534e-07 0.01359044247)
(5.017222801e-06 -3.999275595e-07 0.01512308448)
(1.086338578e-06 -4.128908775e-07 0.01627270172)
(-1.932405902e-06 -4.261675103e-07 0.0171268561)
(-4.309821812e-06 -4.644846139e-07 0.01776954093)
(-4.453154519e-06 -5.317812936e-07 0.01827859498)
(-2.846818065e-06 -5.232371906e-07 0.01856626913)
(-4.347645707e-06 -4.350093323e-07 0.01883982481)
(-4.616201793e-06 -3.422767425e-07 0.01904633274)
(-4.134784204e-06 -2.691909322e-07 0.01918824946)
(-3.371497385e-06 -2.194654732e-07 0.0192793754)
(-2.564561765e-06 -1.86554693e-07 0.01933030399)
(-1.814290007e-06 -1.630022859e-07 0.01934712014)
(-1.159299684e-06 -1.436498187e-07 0.01933546753)
(-6.111415286e-07 -1.256731112e-07 0.01929837002)
(-1.649760527e-07 -1.079828281e-07 0.01923939187)
(1.854059916e-07 -9.066889543e-08 0.0191597898)
(4.52066139e-07 -7.421219464e-08 0.01906153525)
(6.455518385e-07 -5.902315398e-08 0.01894534472)
(7.743534152e-07 -4.548181869e-08 0.01881096663)
(8.489072514e-07 -3.379762212e-08 0.0186584832)
(8.771586256e-07 -2.410536114e-08 0.01848701926)
(8.666750881e-07 -1.638870483e-08 0.01829478466)
(8.246094398e-07 -1.055780994e-08 0.0180795133)
(7.574277666e-07 -6.439607284e-09 0.0178376729)
(6.711452539e-07 -3.842142637e-09 0.01756436533)
(5.715153682e-07 -2.606437212e-09 0.0172529608)
(4.640361692e-07 -2.581850208e-09 0.01689427475)
(3.538283621e-07 -3.605717296e-09 0.01647381361)
(2.458228497e-07 -5.447622565e-09 0.01597186463)
(1.446493248e-07 -7.797827147e-09 0.01535508132)
(5.454786759e-08 -1.010699572e-08 0.0145724347)
(-2.021395997e-08 -1.132504648e-08 0.01352547728)
(-7.325153636e-08 -9.506426685e-09 0.01200848913)
(-8.646053254e-08 -1.889544345e-09 0.009437813337)
(-3.205705e-08 9.559842153e-09 0.004544021359)
(1.371983034e-05 -8.238628547e-08 0.003175620165)
(1.309908273e-05 -1.970340748e-07 0.007084990285)
(1.271844648e-05 -3.054974729e-07 0.01079307444)
(1.265306485e-05 -3.906839846e-07 0.01385055302)
(1.026239481e-05 -4.473299123e-07 0.01625237947)
(5.999937751e-06 -4.782606946e-07 0.01808521748)
(1.29911788e-06 -4.937631158e-07 0.01946000831)
(-2.31090298e-06 -5.096402203e-07 0.02048146446)
(-5.153979326e-06 -5.554624301e-07 0.02125003088)
(-5.325386368e-06 -6.359403968e-07 0.02185879249)
(-3.404419508e-06 -6.257227748e-07 0.02220281289)
(-5.199211723e-06 -5.202138749e-07 0.02252994945)
(-5.520369436e-06 -4.093179096e-07 0.02277690574)
(-4.944657397e-06 -3.219169051e-07 0.02294661945)
(-4.031866879e-06 -2.624518045e-07 0.02305559408)
(-3.066878143e-06 -2.230948454e-07 0.02311649796)
(-2.169651924e-06 -1.949292682e-07 0.02313660786)
(-1.386369754e-06 -1.717862659e-07 0.02312267287)
(-7.308447869e-07 -1.502884911e-07 0.02307830913)
(-1.972896333e-07 -1.291332421e-07 0.02300777904)
(2.217211499e-07 -1.084280587e-07 0.02291258545)
(5.406115695e-07 -8.874801177e-08 0.02279508595)
(7.71994986e-07 -7.058391939e-08 0.02265613737)
(9.260247098e-07 -5.439026564e-08 0.02249543887)
(1.01518128e-06 -4.041750524e-08 0.02231308877)
(1.048966203e-06 -2.882683748e-08 0.02210804047)
(1.036429273e-06 -1.959873275e-08 0.02187815321)
(9.86124297e-07 -1.262575033e-08 0.02162071701)
(9.05783863e-07 -7.700922278e-09 0.02133150774)
(8.026013404e-07 -4.594696621e-09 0.02100466788)
(6.834571174e-07 -3.116955664e-09 0.02063226908)
(5.549261493e-07 -3.087552845e-09 0.02020332779)
(4.231321253e-07 -4.311963048e-09 0.01970051164)
(2.939717558e-07 -6.514639189e-09 0.01910024675)
(1.729815436e-07 -9.32517437e-09 0.01836265514)
(6.523206622e-08 -1.208663589e-08 0.01742671285)
(-2.417323414e-08 -1.35432642e-08 0.01617468965)
(-8.759919098e-08 -1.136843441e-08 0.0143605716)
(-1.033954109e-07 -2.259646202e-09 0.01128638188)
(-3.83360102e-08 1.143231228e-08 0.005434051142)
(1.601984482e-05 -9.619765517e-08 0.003707986248)
(1.529503407e-05 -2.300651847e-07 0.008272729477)
(1.485058735e-05 -3.567115617e-07 0.01260244284)
(1.477424504e-05 -4.561788776e-07 0.01617248206)
(1.198279921e-05 -5.223210199e-07 0.01897695456)
(7.005776988e-06 -5.584370884e-07 0.02111705249)
(1.516904095e-06 -5.765383605e-07 0.02272231547)
(-2.698306481e-06 -5.950771284e-07 0.02391501017)
(-6.018000729e-06 -6.485810473e-07 0.02481242031)
(-6.218142723e-06 -7.4255047e-07 0.0255232357)
(-3.975141882e-06 -7.306199494e-07 0.02592492823)
(-6.070815958e-06 -6.074233675e-07 0.02630690649)
(-6.445813067e-06 -4.779366238e-07 0.02659526293)
(-5.773587734e-06 -3.758835741e-07 0.02679342773)
(-4.707775542e-06 -3.064496481e-07 0.02692067104)
(-3.581014539e-06 -2.604948249e-07 0.02699178494)
(-2.53337587e-06 -2.276075249e-07 0.0270152661)
(-1.618783014e-06 -2.005847925e-07 0.02699899503)
(-8.533647851e-07 -1.75483096e-07 0.02694719408)
(-2.303635854e-07 -1.50781347e-07 0.02686484021)
(2.588908408e-07 -1.266051133e-07 0.02675368821)
(6.312405645e-07 -1.036258715e-07 0.0266164909)
(9.0141347e-07 -8.241672141e-08 0.02645424876)
(1.081264985e-06 -6.350833746e-08 0.0262666105)
(1.185367906e-06 -4.719316098e-08 0.02605369094)
(1.224816588e-06 -3.365941499e-08 0.02581426802)
(1.210177947e-06 -2.28842959e-08 0.02554584208)
(1.151439764e-06 -1.474235147e-08 0.02524524887)
(1.05763093e-06 -8.991917303e-09 0.02490755609)
(9.37150723e-07 -5.36495897e-09 0.02452592427)
(7.980329703e-07 -3.639487136e-09 0.02409109592)
(6.479548635e-07 -3.605155181e-09 0.02359024623)
(4.940666769e-07 -5.034827485e-09 0.02300313717)
(3.432536548e-07 -7.606763805e-09 0.02230224291)
(2.019804484e-07 -1.088846163e-08 0.02144100025)
(7.616767495e-08 -1.411285901e-08 0.02034815508)
(-2.822567408e-08 -1.581367884e-08 0.0188862407)
(-1.022844606e-07 -1.327425708e-08 0.01676800097)
(-1.207287843e-07 -2.638456934e-09 0.01317844914)
(-4.476272075e-08 1.334884354e-08 0.006345024235)
(1.837398098e-05 -1.103340205e-07 0.00425287945)
(1.754265839e-05 -2.638735504e-07 0.009488417387)
(1.703289967e-05 -4.091307704e-07 0.01445438753)
(1.694533877e-05 -5.232149323e-07 0.01854904845)
(1.37436865e-05 -5.990767449e-07 0.02176564169)
(8.035284649e-06 -6.405001147e-07 0.02422022968)
(1.739815043e-06 -6.612613913e-07 0.02606138805)
(-3.094825982e-06 -6.825244542e-07 0.02742935073)
(-6.902353438e-06 -7.438908407e-07 0.0284586364)
(-7.131906548e-06 -8.516691873e-07 0.029273907)
(-4.559293937e-06 -8.379854618e-07 0.02973462875)
(-6.962929931e-06 -6.966849886e-07 0.0301727392)
(-7.393033333e-06 -5.481700064e-07 0.03050346998)
(-6.622023649e-06 -4.311201339e-07 0.03073075533)
(-5.399589027e-06 -3.514828059e-07 0.0308766972)
(-4.10724909e-06 -2.987748641e-07 0.03095826139)
(-2.905658612e-06 -2.610547345e-07 0.03098519313)
(-1.856665196e-06 -2.300609778e-07 0.03096653101)
(-9.787678041e-07 -2.012705557e-07 0.03090711784)
(-2.642158015e-07 -1.729388539e-07 0.03081266197)
(2.969351726e-07 -1.452098925e-07 0.03068517604)
(7.240021524e-07 -1.188538225e-07 0.03052781742)
(1.033877303e-06 -9.452796137e-08 0.0303417336)
(1.240158222e-06 -7.284096681e-08 0.03012652166)
(1.359559198e-06 -5.412825481e-08 0.0298823133)
(1.404804913e-06 -3.860570798e-08 0.02960770688)
(1.388015105e-06 -2.624717171e-08 0.02929983542)
(1.320645272e-06 -1.69087584e-08 0.02895506966)
(1.213051114e-06 -1.031329076e-08 0.02856775251)
(1.07486619e-06 -6.153346379e-09 0.02813003941)
(9.153049101e-07 -4.174314307e-09 0.0276313125)
(7.431726385e-07 -4.134937229e-09 0.02705686232)
(5.66670391e-07 -5.77470166e-09 0.02638347685)
(3.936952073e-07 -8.724587228e-09 0.02557958531)
(2.316617271e-07 -1.248853464e-08 0.02459178196)
(8.736060974e-08 -1.618676124e-08 0.02333834184)
(-3.237347208e-08 -1.813751866e-08 0.02166159731)
(-1.173152896e-07 -1.522492571e-08 0.01923207962)
(-1.384700296e-07 -3.02618147e-09 0.01511503867)
(-5.134065837e-08 1.531047273e-08 0.007277433456)
(2.078351238e-05 -1.24803029e-07 0.004810594545)
(1.984317161e-05 -2.984774615e-07 0.01073271168)
(1.926656403e-05 -4.627834566e-07 0.01634991036)
(1.916752055e-05 -5.918284139e-07 0.02098153789)
(1.554600926e-05 -6.776386106e-07 0.02461994948)
(9.089017679e-06 -7.244941679e-07 0.0273964278)
(1.967971313e-06 -7.479780416e-07 0.02947903243)
(-3.500675992e-06 -7.72029505e-07 0.03102638731)
(-7.80751587e-06 -8.41443371e-07 0.03219065169)
(-8.06717217e-06 -9.633555795e-07 0.03311283543)
(-5.157191687e-06 -9.478773944e-07 0.03363397542)
(-7.876036258e-06 -7.880470268e-07 0.03412953889)
(-8.362542659e-06 -6.200560524e-07 0.03450364112)
(-7.490424129e-06 -4.876564664e-07 0.03476073228)
(-6.10768159e-06 -3.975756399e-07 0.03492581271)
(-4.645866477e-06 -3.379556718e-07 0.03501807308)
(-3.286701547e-06 -2.95288991e-07 0.0350485366)
(-2.100144989e-06 -2.602307679e-07 0.03502742716)
(-1.107121684e-06 -2.276648207e-07 0.03496022266)
(-2.988645948e-07 -1.956177496e-07 0.03485338001)
(3.358747265e-07 -1.642524612e-07 0.0347091758)
(8.189465152e-07 -1.344401028e-07 0.03453118145)
(1.169458146e-06 -1.069241912e-07 0.03432069492)
(1.40279038e-06 -8.239320248e-08 0.03407726047)
(1.537849388e-06 -6.12265385e-08 0.03380102706)
(1.589028547e-06 -4.36683923e-08 0.03349040924)
(1.570036953e-06 -2.968917942e-08 0.03314216406)
(1.49383236e-06 -1.912614309e-08 0.03275218632)
(1.372128493e-06 -1.166575749e-08 0.03231407708)
(1.215822243e-06 -6.960285349e-09 0.03181896307)
(1.035336379e-06 -4.721726509e-09 0.03125483399)
(8.40630985e-07 -4.67718559e-09 0.03060505143)
(6.409825447e-07 -6.531985831e-09 0.02984335938)
(4.453237011e-07 -9.86871418e-09 0.02893404692)
(2.620414366e-07 -1.412625901e-08 0.02781670479)
(9.881692572e-08 -1.83094645e-08 0.02639889075)
(-3.6618872e-08 -2.05160408e-08 0.02450226091)
(-1.326998093e-07 -1.722149556e-08 0.02175414056)
(-1.566287446e-07 -3.42302956e-09 0.01709719813)
(-5.807338158e-08 1.731826107e-08 0.008231783219)
(2.324974251e-05 -1.39612508e-07 0.005381433247)
(2.219781826e-05 -3.338956379e-07 0.01200628548)
(2.15527888e-05 -5.176986453e-07 0.01829003679)
(2.144199254e-05 -6.620564409e-07 0.02347126629)
(1.739074251e-05 -7.580491172e-07 0.02754142205)
(1.016754612e-05 -8.10464687e-07 0.0306473651)
(2.201496334e-06 -8.367352233e-07 0.03297709747)
(-3.916076068e-06 -8.636407011e-07 0.03470806584)
(-8.733977699e-06 -9.41291412e-07 0.03601048511)
(-9.024445547e-06 -1.077670067e-06 0.03704209777)
(-5.769158582e-06 -1.060355196e-06 0.0376250777)
(-8.810628909e-06 -8.815589072e-07 0.03817944613)
(-9.354865531e-06 -6.936336504e-07 0.03859794039)
(-8.379258958e-06 -5.455231565e-07 0.03888553871)
(-6.832436295e-06 -4.447530854e-07 0.03907020804)
(-5.197158082e-06 -3.78058444e-07 0.03917341629)
(-3.676710813e-06 -3.303288146e-07 0.0392074947)
(-2.34935411e-06 -2.911104839e-07 0.03918388035)
(-1.238495862e-06 -2.546801697e-07 0.03910870117)
(-3.343287096e-07 -2.188303029e-07 0.03898918027)
(3.757305677e-07 -1.83743121e-07 0.03882786439)
(9.161250159e-07 -1.503931441e-07 0.03862874872)
(1.308229344e-06 -1.196121169e-07 0.03839328527)
(1.569249439e-06 -9.217021201e-08 0.0381209642)
(1.720334929e-06 -6.849185205e-08 0.03781195216)
(1.777587151e-06 -4.885020676e-08 0.03746447556)
(1.756341961e-06 -3.321218109e-08 0.03707490662)
(1.671094716e-06 -2.139570511e-08 0.03663865303)
(1.534949126e-06 -1.305004913e-08 0.03614855651)
(1.360095135e-06 -7.786212417e-09 0.03559469087)
(1.15819231e-06 -5.282019879e-09 0.03496362065)
(9.403826259e-07 -5.232193609e-09 0.03423673306)
(7.170433393e-07 -7.307089672e-09 0.03338465648)
(4.981670661e-07 -1.103976361e-08 0.03236744245)
(2.931360117e-07 -1.58025207e-08 0.03111751335)
(1.105428205e-07 -2.048211714e-08 0.0295314575)
(-4.096417051e-08 -2.2950532e-08 0.02740976822)
(-1.484463425e-07 -1.926504674e-08 0.02433554816)
(-1.752147527e-07 -3.829215891e-09 0.01912599982)
(-6.496453265e-08 1.937329472e-08 0.009208589807)
(2.577400556e-05 -1.547704692e-07 0.005965704367)
(2.460787215e-05 -3.701472403e-07 0.01330982778)
(2.389281078e-05 -5.739060446e-07 0.02027581638)
(2.376998518e-05 -7.339370051e-07 0.02601958054)
(1.927888423e-05 -8.403517653e-07 0.03053163985)
(1.127145344e-05 -8.984581802e-07 0.03397480029)
(2.440516436e-06 -9.275809522e-07 0.03655747555)
(-4.341250932e-06 -9.574076023e-07 0.03847637803)
(-9.682240122e-06 -1.043488979e-06 0.03992020312)
(-1.000424455e-05 -1.19467449e-06 0.04106381967)
(-6.395525683e-06 -1.175479716e-06 0.0417100947)
(-9.767213481e-06 -9.772712177e-07 0.04232465183)
(-1.037053877e-05 -7.689426045e-07 0.0427885827)
(-9.28900898e-06 -6.047515091e-07 0.04310740604)
(-7.574245219e-06 -4.930406645e-07 0.04331212524)
(-5.761422142e-06 -4.191048753e-07 0.04342653897)
(-4.075897395e-06 -3.661931611e-07 0.04346431733)
(-2.604427376e-06 -3.227168313e-07 0.04343813913)
(-1.372961409e-06 -2.823312175e-07 0.04335479763)
(-3.706273313e-07 -2.425890713e-07 0.04322230014)
(4.165242577e-07 -2.036924159e-07 0.04304346993)
(1.015590226e-06 -1.667215769e-07 0.04282273594)
(1.45026597e-06 -1.325986026e-07 0.04256170784)
(1.739625449e-06 -1.021772846e-07 0.04225982042)
(1.907114542e-06 -7.592812585e-08 0.04191725843)
(1.970582731e-06 -5.41539546e-08 0.04153205571)
(1.947030916e-06 -3.68180826e-08 0.04110019063)
(1.852528237e-06 -2.371867225e-08 0.04061657226)
(1.701601094e-06 -1.446691458e-08 0.04007326516)
(1.507762917e-06 -8.631574394e-09 0.03945926541)
(1.283939167e-06 -5.855497525e-09 0.03875967885)
(1.042481525e-06 -5.800261534e-09 0.03795387187)
(7.948939221e-07 -8.100432499e-09 0.03700928392)
(5.522538895e-07 -1.223836903e-08 0.03588162928)
(3.24962274e-07 -1.751822654e-08 0.03449599331)
(1.225446376e-07 -2.270589452e-08 0.03273773674)
(-4.541171835e-08 -2.544230927e-08 0.03038569214)
(-1.645634078e-07 -2.135668477e-08 0.02697769893)
(-1.942381086e-07 -4.244960202e-09 0.0212025413)
(-7.201783955e-08 2.147668541e-08 0.01020838165)
(2.83576671e-05 -1.702851127e-07 0.006563723983)
(2.707463707e-05 -4.072518799e-07 0.01464404376)
(2.628789586e-05 -6.314360614e-07 0.02230832338)
(2.615275786e-05 -8.075089924e-07 0.02862785923)
(2.121145584e-05 -9.245910787e-07 0.03359222053)
(1.240133683e-05 -9.885222503e-07 0.03738053342)
(2.685160926e-06 -1.020564374e-06 0.04022210359)
(-4.776430594e-06 -1.053380934e-06 0.04233336245)
(-1.065281613e-05 -1.14809136e-06 0.04392192078)
(-1.100709921e-05 -1.314432148e-06 0.0451801768)
(-7.036631842e-06 -1.293313233e-06 0.04589123632)
(-1.074630746e-05 -1.075235737e-06 0.04656739845)
(-1.141011185e-05 -8.460236553e-07 0.0470778351)
(-1.022016635e-05 -6.653735652e-07 0.04742861823)
(-8.333509664e-06 -5.424644996e-07 0.04765385907)
(-6.338963912e-06 -4.611171711e-07 0.04777974197)
(-4.484477244e-06 -4.029014322e-07 0.04782130735)
(-2.865502777e-06 -3.550669082e-07 0.04779250496)
(-1.510591068e-06 -3.106329227e-07 0.04770080907)
(-4.077800966e-07 -2.669069078e-07 0.04755502965)
(4.582778649e-07 -2.241111382e-07 0.04735827297)
(1.117395954e-06 -1.834342343e-07 0.04711541197)
(1.595644864e-06 -1.458906735e-07 0.04682821764)
(1.914010581e-06 -1.124198338e-07 0.04649606815)
(2.098289269e-06 -8.353938278e-08 0.04611916675)
(2.168119695e-06 -5.958250506e-08 0.04569535018)
(2.142206977e-06 -4.050883465e-08 0.04522019369)
(2.038231074e-06 -2.609630118e-08 0.044688096)
(1.872174554e-06 -1.591712032e-08 0.0440903262)
(1.658905472e-06 -9.496828602e-09 0.04341477733)
(1.412644976e-06 -6.442469685e-09 0.04264506217)
(1.146982915e-06 -6.381696678e-09 0.04175847875)
(8.745764086e-07 -8.912443493e-09 0.04071920255)
(6.07613431e-07 -1.346517885e-08 0.03947850851)
(3.575374407e-07 -1.92743047e-08 0.03795397235)
(1.348288697e-07 -2.498199965e-08 0.03601946302)
(-4.996392152e-08 -2.79927206e-08 0.0334316426)
(-1.810597241e-07 -2.349754118e-08 0.0296820222)
(-2.137091035e-07 -4.670487401e-09 0.02332794592)
(-7.923711796e-08 2.362957104e-08 0.01123169962)
(3.100212483e-05 -1.861648317e-07 0.007175815611)
(2.959944749e-05 -4.452296296e-07 0.0160096552)
(2.873933974e-05 -6.903198183e-07 0.02438865735)
(2.859159962e-05 -8.828122037e-07 0.03129751338)
(2.318950285e-05 -1.010812629e-06 0.03672481981)
(1.355780753e-05 -1.08070562e-06 0.04086640693)
(2.935562151e-06 -1.11573579e-06 0.04397296407)
(-5.221850479e-06 -1.151612617e-06 0.04628110566)
(-1.164623078e-05 -1.255155142e-06 0.04801780295)
(-1.203355208e-05 -1.437007825e-06 0.04939339601)
(-7.692823884e-06 -1.413919494e-06 0.05017076447)
(-1.174844053e-05 -1.175505461e-06 0.05090998123)
(-1.247414713e-05 -9.249185019e-07 0.05146801799)
(-1.11732348e-05 -7.274221203e-07 0.05185151295)
(-9.110640377e-06 -5.93051328e-07 0.05209775834)
(-6.930095829e-06 -5.041180592e-07 0.05223538029)
(-4.902671396e-06 -4.404734865e-07 0.05228082179)
(-3.132721549e-06 -3.881782156e-07 0.05224933348)
(-1.651459293e-06 -3.39600596e-07 0.0521490866)
(-4.458071044e-07 -2.917969678e-07 0.05198971271)
(5.010139771e-07 -2.450103338e-07 0.05177460774)
(1.221597275e-06 -2.005401576e-07 0.05150909904)
(1.744444671e-06 -1.594955204e-07 0.05119512278)
(2.092499173e-06 -1.229034006e-07 0.05083199911)
(2.293962533e-06 -9.132974035e-08 0.05041995026)
(2.370304906e-06 -6.513879485e-08 0.04995661123)
(2.341975731e-06 -4.428643386e-08 0.04943714463)
(2.228303688e-06 -2.852987814e-08 0.04885542685)
(2.046761781e-06 -1.740145088e-08 0.0482019128)
(1.813604565e-06 -1.038244312e-08 0.04746336649)
(1.544379365e-06 -7.0432539e-09 0.04662187253)
(1.25394333e-06 -6.976813584e-09 0.04565261191)
(9.561339055e-07 -9.743561935e-09 0.04451641935)
(6.642756392e-07 -1.472085677e-08 0.04316002599)
(3.908791344e-07 -2.107170516e-08 0.04149332117)
(1.474021624e-07 -2.731166386e-08 0.03937841166)
(-5.462324269e-08 -3.060314572e-08 0.03654926739)
(-1.979442155e-07 -2.568877413e-08 0.03244998096)
(-2.336382707e-07 -5.10602769e-09 0.02550336347)
(-8.662627337e-08 2.583311626e-08 0.01227909731)
(3.370880936e-05 -2.024182166e-07 0.007802310382)
(3.218366928e-05 -4.841010346e-07 0.01740740088)
(3.12484686e-05 -7.505891702e-07 0.02651794371)
(3.108782982e-05 -9.598873767e-07 0.03402998722)
(2.521409532e-05 -1.099063061e-06 0.03993113234)
(1.474149117e-05 -1.175058158e-06 0.04443430661)
(3.191855573e-06 -1.213146688e-06 0.04781208613)
(-5.67775155e-06 -1.252155792e-06 0.0503217433)
(-1.266302149e-05 -1.364738243e-06 0.05221006541)
(-1.308415843e-05 -1.562467834e-06 0.05370575658)
(-8.364456796e-06 -1.537363743e-06 0.0545509943)
(-1.277415481e-05 -1.278134634e-06 0.05535474942)
(-1.356322026e-05 -1.005669825e-06 0.05596150638)
(-1.214872993e-05 -7.909307414e-07 0.05637848291)
(-9.906057771e-06 -6.448285162e-07 0.0566462271)
(-7.535137685e-06 -5.481308021e-07 0.05679586433)
(-5.330706083e-06 -4.789296496e-07 0.05684527316)
(-3.406228252e-06 -4.220686659e-07 0.05681103572)
(-1.795642291e-06 -3.692499082e-07 0.05670203665)
(-4.847289267e-07 -3.172727164e-07 0.05652874839)
(5.447557138e-07 -2.664013089e-07 0.05629486338)
(1.32825056e-06 -2.180486008e-07 0.05600617407)
(1.89674589e-06 -1.734205032e-07 0.05566478567)
(2.275187785e-06 -1.336336565e-07 0.05526995897)
(2.494240189e-06 -9.930341301e-08 0.0548219356)
(2.577247741e-06 -7.082582982e-08 0.0543181441)
(2.546445247e-06 -4.815292385e-08 0.05375332473)
(2.422848905e-06 -3.102071966e-08 0.05312081926)
(2.225457225e-06 -1.892070926e-08 0.05241024924)
(1.971943887e-06 -1.128889706e-08 0.05160722309)