/*--------------------------------*- C++ -*----------------------------------*\
| =========                 |                                                 |
| \\      /  F ield         | foam-extend: Open Source CFD                    |
|  \\    /   O peration     | Version:     3.2                                |
|   \\  /    A nd           | Web:         http://www.foam-extend.org         |
|    \\/     M anipulation  | For copyright notice see file Copyright         |
\*---------------------------------------------------------------------------*/
FoamFile
{
    version     2.0;
    format      ascii;
    class       volVectorField;
    location    "0";
    object      U;
}
// * * * * * * * * * * * * * * * * * * * * * * * * * * * * * * * * * * * * * //

dimensions      [0 1 -1 0 0 0 0];

internalField   nonuniform List<vector> 
18000
(
(0.5532246199 -0.06676507588 0)
(1.26273302 -0.06659246026 0)
(2.00368143 -0.0662833894 0)
(2.712008967 -0.06588521978 0)
(3.382898921 -0.06543340434 0)
(4.016718458 -0.06495548308 0)
(4.614924402 -0.0644736371 0)
(5.179253722 -0.0640097724 0)
(5.711490961 -0.06359238261 0)
(6.213386864 -0.06327633896 0)
(6.686627066 -0.06280696091 0)
(7.132820153 -0.06190915823 0)
(7.553494036 -0.06109412314 0)
(7.950096166 -0.06034866879 0)
(8.323995603 -0.05962853081 0)
(8.676485976 -0.05891481292 0)
(9.008788833 -0.05819786828 0)
(9.322057155 -0.05747515986 0)
(9.61737887 -0.05674307958 0)
(9.895780296 -0.05600138834 0)
(10.15822948 -0.05524692808 0)
(10.40563938 -0.05447883142 0)
(10.63887096 -0.0536957045 0)
(10.85873605 -0.05289369286 0)
(11.06600016 -0.05207190462 0)
(11.26138503 -0.05122709639 0)
(11.44557116 -0.05035524083 0)
(11.61920015 -0.04945210787 0)
(11.78287686 -0.04851187529 0)
(11.93717156 -0.04752772655 0)
(12.08262186 -0.04649117083 0)
(12.21973461 -0.04539127256 0)
(12.34898763 -0.04421123905 0)
(12.47083136 -0.04293012683 0)
(12.58569045 -0.04151101201 0)
(12.69396523 -0.03989582782 0)
(12.79603309 -0.03795237622 0)
(12.8922498 -0.0353199775 0)
(12.98295074 -0.0304623661 0)
(13.06845207 -0.01566338982 0)
(0.5531831809 -0.2018662781 0)
(1.262638436 -0.2013443694 0)
(2.003531345 -0.2004098841 0)
(2.711805825 -0.1992060059 0)
(3.382645527 -0.1978399279 0)
(4.016417588 -0.1963949182 0)
(4.614578723 -0.1949380419 0)
(5.178865772 -0.1935355326 0)
(5.711063144 -0.1922735416 0)
(6.212921453 -0.1913179738 0)
(6.686126208 -0.1898987947 0)
(7.132285872 -0.1871842605 0)
(7.552928245 -0.1847199766 0)
(7.949500667 -0.1824660722 0)
(8.323372098 -0.1802887127 0)
(8.675836068 -0.1781307645 0)
(9.008114034 -0.1759630602 0)
(9.32135889 -0.1737779289 0)
(9.616658484 -0.1715644614 0)
(9.895039057 -0.1693219349 0)
(10.15746858 -0.1670408009 0)
(10.40485995 -0.1647184369 0)
(10.63807406 -0.1623506283 0)
(10.85792268 -0.1599257213 0)
(11.06517126 -0.157441019 0)
(11.2605415 -0.1548867151 0)
(11.44471384 -0.1522506328 0)
(11.61832982 -0.1495199822 0)
(11.78199427 -0.1466771599 0)
(11.93627741 -0.1437015556 0)
(12.08171682 -0.1405674973 0)
(12.2188193 -0.1372419207 0)
(12.34806263 -0.1336740528 0)
(12.46989724 -0.1298005703 0)
(12.58474773 -0.1255098326 0)
(12.6930144 -0.1206262731 0)
(12.79507461 -0.1147501869 0)
(12.89128411 -0.1067910477 0)
(12.98197825 -0.0921039089 0)
(13.06747318 -0.04735874504 0)
(0.553097246 -0.3401465497 0)
(1.26244229 -0.3392671288 0)
(2.003220104 -0.3376925123 0)
(2.711384556 -0.3356639664 0)
(3.382120046 -0.3333621123 0)
(4.015793653 -0.3309272575 0)
(4.613861866 -0.3284724075 0)
(5.178061255 -0.3261091663 0)
(5.710175953 -0.3239826998 0)
(6.2119563 -0.3223725592 0)
(6.685087543 -0.3199812293 0)
(7.131177899 -0.3154072139 0)
(7.551754926 -0.3112548727 0)
(7.948265743 -0.307457023 0)
(8.322079094 -0.303788152 0)
(8.674488309 -0.3001519893 0)
(9.006714658 -0.2964993874 0)
(9.319910853 -0.2928174209 0)
(9.615164573 -0.2890877077 0)
(9.893501901 -0.2853090298 0)
(10.15589065 -0.2814652979 0)
(10.40324359 -0.2775520929 0)
(10.63642147 -0.2735623135 0)
(10.85623595 -0.2694763227 0)
(11.06345233 -0.2652895763 0)
(11.25879221 -0.2609855506 0)
(11.44293594 -0.2565437274 0)
(11.61652495 -0.251942556 0)
(11.78016398 -0.247152374 0)
(11.93442315 -0.2421384532 0)
(12.07983997 -0.2368575358 0)
(12.21692115 -0.2312539085 0)
(12.34614441 -0.225242018 0)
(12.46796009 -0.218715164 0)
(12.58279273 -0.2114852312 0)
(12.69104259 -0.2032563882 0)
(12.79308695 -0.1933551285 0)
(12.8892815 -0.1799439052 0)
(12.97996155 -0.1551959402 0)
(13.0654432 -0.07979992436 0)
(0.5529628969 -0.4816806973 0)
(1.262135639 -0.4804353514 0)
(2.002733515 -0.4782055409 0)
(2.710725952 -0.475332922 0)
(3.381298518 -0.4720732721 0)
(4.014818204 -0.4686252801 0)
(4.612741145 -0.4651489731 0)
(5.176803488 -0.4618023929 0)
(5.708788933 -0.4587911089 0)
(6.210447396 -0.4565109929 0)
(6.683463714 -0.4531246364 0)
(7.129445713 -0.4466473844 0)
(7.549920581 -0.4407672642 0)
(7.946335084 -0.4353891385 0)
(8.320057635 -0.4301936593 0)
(8.672381249 -0.4250444982 0)
(9.004526898 -0.4198720575 0)
(9.317647017 -0.4146580337 0)
(9.612829019 -0.409376396 0)
(9.891098738 -0.4040254195 0)
(10.15342376 -0.3985823201 0)
(10.40071661 -0.3930408401 0)
(10.63383785 -0.3873909233 0)
(10.85359893 -0.3816047616 0)
(11.06076498 -0.3756759204 0)
(11.25605742 -0.369581 0)
(11.44015642 -0.3632909451 0)
(11.61370326 -0.3567752375 0)
(11.77730254 -0.3499918724 0)
(11.93152424 -0.3428916716 0)
(12.07690574 -0.3354133773 0)
(12.21395362 -0.3274780944 0)
(12.34314549 -0.3189646709 0)
(12.46493158 -0.309722009 0)
(12.57973633 -0.2994837188 0)
(12.68795989 -0.2878308743 0)
(12.78997947 -0.2738097247 0)
(12.88615065 -0.2548181241 0)
(12.97680868 -0.2197725915 0)
(13.06226956 -0.1130044778 0)
(0.5527820187 -0.6265452881 0)
(1.261722785 -0.6249254067 0)
(2.002078406 -0.6220249848 0)
(2.709839254 -0.618288431 0)
(3.38019247 -0.6140484473 0)
(4.013504927 -0.609563478 0)
(4.611232283 -0.6050416779 0)
(5.175110117 -0.6006886199 0)
(5.706921546 -0.5967716977 0)
(6.208415913 -0.5938058409 0)
(6.681277504 -0.5894010439 0)
(7.127113619 -0.5809757702 0)
(7.547450946 -0.5733272146 0)
(7.943735779 -0.5663316274 0)
(8.317336082 -0.5595736173 0)
(8.669544449 -0.5528758554 0)
(9.001581451 -0.5461478126 0)
(9.314599146 -0.5393656807 0)
(9.609684592 -0.5324956 0)
(9.887863286 -0.5255353271 0)
(10.1501025 -0.5184552255 0)
(10.39731446 -0.5112471555 0)
(10.63035945 -0.5038980366 0)
(10.85004864 -0.4963716973 0)
(11.05714692 -0.4886597679 0)
(11.25237548 -0.4807318114 0)
(11.43641426 -0.4725500339 0)
(11.60990433 -0.4640747391 0)
(11.7734501 -0.4552512894 0)
(11.92762135 -0.4460157161 0)
(12.07295529 -0.4362883385 0)
(12.20995835 -0.4259665337 0)
(12.33910796 -0.4148927136 0)
(12.46085421 -0.402870338 0)
(12.57562141 -0.3895529008 0)
(12.68380957 -0.3743954846 0)
(12.78579577 -0.3561574997 0)
(12.8819355 -0.33145421 0)
(12.97256387 -0.2858687973 0)
(13.05799679 -0.1469903682 0)
(0.5525472985 -0.7748186908 0)
(1.261187037 -0.7728154607 0)
(2.001228292 -0.7692286472 0)
(2.708688612 -0.7646078292 0)
(3.378757186 -0.7593644435 0)
(4.011800728 -0.7538180958 0)
(4.609274279 -0.7482262012 0)
(5.172912682 -0.7428429819 0)
(5.704498295 -0.7379991109 0)
(6.205779719 -0.7343313772 0)
(6.678440526 -0.7288841747 0)
(7.124087331 -0.7184650403 0)
(7.544246177 -0.7090064362 0)
(7.940362741 -0.700355327 0)
(8.313804407 -0.691998018 0)
(8.66586322 -0.6837152152 0)
(8.997759234 -0.6753949654 0)
(9.310644017 -0.6670078261 0)
(9.605604165 -0.6585119249 0)
(9.88366474 -0.6499044872 0)
(10.1457926 -0.641148863 0)
(10.3928996 -0.6322349864 0)
(10.62584562 -0.6231466813 0)
(10.84544153 -0.6138392164 0)
(11.05245188 -0.6043022409 0)
(11.24759754 -0.594498115 0)
(11.43155817 -0.5843801008 0)
(11.60497458 -0.5738991077 0)
(11.7684509 -0.5629875681 0)
(11.92255669 -0.5515663748 0)
(12.06782892 -0.5395369906 0)
(12.20477381 -0.5267725068 0)
(12.33386857 -0.5130780413 0)
(12.45556313 -0.4982105424 0)
(12.5702816 -0.4817415027 0)
(12.67842382 -0.4629970486 0)
(12.78036671 -0.4404430021 0)
(12.87646562 -0.4098936213 0)
(12.96705551 -0.3535203145 0)
(13.05245216 -0.1817759815 0)
(0.5522595787 -0.9265811182 0)
(1.260530318 -0.9241855188 0)
(2.000186222 -0.9198961622 0)
(2.707278157 -0.9143702724 0)
(3.376997816 -0.9080998735 0)
(4.009711723 -0.9014671721 0)
(4.60687416 -0.8947800025 0)
(5.170219067 -0.8883423812 0)
(5.701527876 -0.8825497494 0)
(6.202548275 -0.8781636229 0)
(6.67496296 -0.871649486 0)
(7.120377711 -0.8591895734 0)
(7.540317773 -0.8478783285 0)
(7.936228073 -0.8375327411 0)
(8.309475283 -0.8275385002 0)
(8.661350774 -0.8176333587 0)
(8.993073964 -0.8076834357 0)
(9.305795823 -0.7976535216 0)
(9.600602381 -0.7874935426 0)
(9.878518166 -0.7772001806 0)
(10.14050953 -0.7667296071 0)
(10.38748785 -0.7560697846 0)
(10.62031258 -0.7452013686 0)
(10.83979415 -0.7340708662 0)
(11.0466967 -0.7226658994 0)
(11.24174074 -0.710941456 0)
(11.42560559 -0.6988416435 0)
(11.59893169 -0.686307756 0)
(11.76232289 -0.6732589915 0)
(11.91634844 -0.6596007484 0)
(12.06154502 -0.645215189 0)
(12.19841859 -0.6299505473 0)
(12.32744614 -0.6135737701 0)
(12.44907733 -0.5957941993 0)
(12.56373606 -0.5760993965 0)
(12.67182197 -0.553683498 0)
(12.77371178 -0.5267118285 0)
(12.86976065 -0.4901787921 0)
(12.96030337 -0.4227637409 0)
(13.04565555 -0.2173801357 0)
(0.551913615 -1.08191467 0)
(1.259740657 -1.079117469 0)
(1.998933202 -1.074109038 0)
(2.705582179 -1.067656779 0)
(3.374882291 -1.0603352 0)
(4.007199833 -1.052590582 0)
(4.603988178 -1.044782365 0)
(5.166980177 -1.03726553 0)
(5.697956146 -1.030501812 0)
(6.198662681 -1.025380388 0)
(6.670781421 -1.017774211 0)
(7.115917141 -1.003225499 0)
(7.535594131 -0.9900180182 0)
(7.931256413 -0.97793808 0)
(8.304269801 -0.9662683883 0)
(8.655924859 -0.954702733 0)
(8.987440241 -0.9430847889 0)
(9.299966195 -0.9313734438 0)
(9.59458807 -0.9195102295 0)
(9.872329755 -0.9074912717 0)
(10.134157 -0.8952653944 0)
(10.3809806 -0.8828185421 0)
(10.61365948 -0.8701281273 0)
(10.83300355 -0.8571316895 0)
(11.03977648 -0.8438147757 0)
(11.23469834 -0.8301248277 0)
(11.418448 -0.8159965831 0)
(11.59166553 -0.8013614945 0)
(11.75495437 -0.7861252141 0)
(11.90888342 -0.7701772811 0)
(12.05398905 -0.7533801034 0)
(12.19077688 -0.7355564725 0)
(12.3197236 -0.716434266 0)
(12.44127859 -0.6956740993 0)
(12.55586549 -0.6726776281 0)
(12.66388369 -0.6465038921 0)
(12.76570967 -0.6150106485 0)
(12.86169837 -0.5723531549 0)
(12.95218437 -0.493636536 0)
(13.03748308 -0.2538220921 0)
(0.5515077696 -1.24090338 0)
(1.258814316 -1.237695126 0)
(1.997463302 -1.2319507 0)
(2.70359265 -1.224550273 0)
(3.372400598 -1.21615278 0)
(4.00425317 -1.20727008 0)
(4.600602671 -1.198314435 0)
(5.163180678 -1.189692993 0)
(5.693766198 -1.181935338 0)
(6.194104542 -1.176061315 0)
(6.665876114 -1.1673374 0)
(7.110684506 -1.150650736 0)
(7.53005289 -1.1355024 0)
(7.925424225 -1.1216473 0)
(8.298163321 -1.108262733 0)
(8.649559792 -1.09499749 0)
(8.980831397 -1.081672274 0)
(9.293127537 -1.068239932 0)
(9.587532765 -1.054633404 0)
(9.865070214 -1.040848245 0)
(10.12670492 -1.02682576 0)
(10.37334703 -1.012549827 0)
(10.6058548 -0.9979945403 0)
(10.82503758 -0.9830882598 0)
(11.03165847 -0.9678144089 0)
(11.22643699 -0.952112706 0)
(11.41005153 -0.9359082983 0)
(11.58314169 -0.9191225652 0)
(11.74631045 -0.9016472943 0)
(11.90012632 -0.8833557927 0)
(12.04512524 -0.8640902488 0)
(12.18181249 -0.8436474131 0)
(12.31066438 -0.8217151745 0)
(12.43212999 -0.7979042755 0)
(12.54663263 -0.7715284441 0)
(12.6545714 -0.741508445 0)
(12.75632251 -0.70538723 0)
(12.85224062 -0.6564611646 0)
(12.94266008 -0.5661770403 0)
(13.02789607 -0.2911215649 0)
(0.5510391677 -1.403633256 0)
(1.257744734 -1.400004278 0)
(1.99576611 -1.393506537 0)
(2.701295478 -1.385135632 0)
(3.369535156 -1.375636906 0)
(4.00085086 -1.365589345 0)
(4.596693658 -1.355459273 0)
(5.158793657 -1.345707229 0)
(5.688928353 -1.33693225 0)
(6.188841572 -1.330287917 0)
(6.660212291 -1.320419964 0)
(7.104642742 -1.30154504 0)
(7.5236548 -1.284410178 0)
(7.918690197 -1.268738145 0)
(8.291112586 -1.253598349 0)
(8.642210485 -1.238593526 0)
(8.973200617 -1.223520865 0)
(9.285231407 -1.208327029 0)
(9.579386486 -1.192936165 0)
(9.856688119 -1.177343245 0)
(10.11810052 -1.161481876 0)
(10.36453306 -1.145333822 0)
(10.59684328 -1.128869781 0)
(10.81583983 -1.112008717 0)
(11.02228516 -1.09473188 0)
(11.21689818 -1.076971084 0)
(11.40035671 -1.058641659 0)
(11.57329979 -1.039654674 0)
(11.73632992 -1.019887727 0)
(11.89001509 -0.9991975103 0)
(12.03489081 -0.9774055171 0)
(12.17146191 -0.954281844 0)
(12.30020433 -0.9294734504 0)
(12.42156673 -0.9025400321 0)
(12.53597208 -0.8727053208 0)
(12.64381914 -0.8387485521 0)
(12.74548379 -0.7978904648 0)
(12.84132041 -0.7425483216 0)
(12.93166304 -0.6404244968 0)
(13.0168266 -0.3292987325 0)
(0.5505078192 -1.570192333 0)
(1.256531934 -1.56613273 0)
(1.99384166 -1.558863949 0)
(2.69869071 -1.549499729 0)
(3.366286027 -1.538873857 0)
(3.996992974 -1.527634024 0)
(4.592261221 -1.516301889 0)
(5.153819206 -1.50539264 0)
(5.683442711 -1.495576397 0)
(6.182873881 -1.488143629 0)
(6.653790073 -1.477104717 0)
(7.097791974 -1.455990042 0)
(7.516399993 -1.436821909 0)
(7.911054471 -1.419290187 0)
(8.283117746 -1.402353861 0)
(8.633877093 -1.385568523 0)
(8.964548062 -1.368707298 0)
(9.276277972 -1.351710519 0)
(9.570149407 -1.334493331 0)
(9.847183647 -1.317050111 0)
(10.10834398 -1.299306587 0)
(10.35453889 -1.281242361 0)
(10.58662511 -1.262824649 0)
(10.80541048 -1.243962804 0)
(11.01165674 -1.224635849 0)
(11.2060821 -1.204767507 0)
(11.38936373 -1.18426306 0)
(11.56214005 -1.163023027 0)
(11.72501297 -1.140910478 0)
(11.87854995 -1.117765102 0)
(12.02328597 -1.093387209 0)
(12.15972538 -1.067519616 0)
(12.28834366 -1.039767389 0)
(12.40958903 -1.009637975 0)
(12.52388407 -0.9762629929 0)
(12.63162713 -0.9382768183 0)
(12.73319375 -0.8925703953 0)
(12.82893795 -0.8306611974 0)
(12.91919347 -0.7164190719 0)
(13.00427492 -0.3683742478 0)
(0.54991064 -1.740670715 0)
(1.255168874 -1.736170354 0)
(1.991678782 -1.72811239 0)
(2.695763227 -1.71773148 0)
(3.362634351 -1.70595194 0)
(3.992657121 -1.69349178 0)
(4.587279633 -1.680929296 0)
(5.148228452 -1.668835612 0)
(5.677277432 -1.657953603 0)
(6.17616683 -1.649713847 0)
(6.646572182 -1.637476422 0)
(7.09009244 -1.614069292 0)
(7.508246361 -1.592820043 0)
(7.902472726 -1.573384873 0)
(8.274132395 -1.554609742 0)
(8.624511245 -1.536001992 0)
(8.95482351 -1.517310116 0)
(9.266215261 -1.498467969 0)
(9.559767911 -1.479381482 0)
(9.83650163 -1.460044423 0)
(10.09737866 -1.440374455 0)
(10.34330651 -1.420348965 0)
(10.57514096 -1.399931613 0)
(10.793689 -1.379021906 0)
(10.99971153 -1.357596592 0)
(11.19392598 -1.33557111 0)
(11.37700879 -1.312840462 0)
(11.54959768 -1.289294363 0)
(11.71229392 -1.264781018 0)
(11.86566435 -1.23912271 0)
(12.01024336 -1.212098069 0)
(12.14653477 -1.183421989 0)
(12.27501352 -1.152656656 0)
(12.39612737 -1.119256042 0)
(12.51029842 -1.082257483 0)
(12.61792461 -1.040147086 0)
(12.71938105 -0.9894782413 0)
(12.81502139 -0.9208474593 0)
(12.905179 -0.794201877 0)
(12.99016815 -0.40836925 0)
(0.54924409 -1.915160628 0)
(1.253647476 -1.910209137 0)
(1.989264656 -1.901343419 0)
(2.692495676 -1.889921897 0)
(3.358558481 -1.876961541 0)
(3.987817597 -1.863252338 0)
(4.581719364 -1.849430554 0)
(5.141988253 -1.836124565 0)
(5.67039597 -1.824151711 0)
(6.16868066 -1.815085978 0)
(6.638515832 -1.801621837 0)
(7.081498495 -1.775868308 0)
(7.49914557 -1.752488972 0)
(7.892894091 -1.731105565 0)
(8.264103269 -1.710448359 0)
(8.614057423 -1.689975314 0)
(8.943969314 -1.66940971 0)
(9.254983625 -1.648678771 0)
(9.548180458 -1.627678999 0)
(9.824578747 -1.606403537 0)
(10.08513957 -1.584761794 0)
(10.33076932 -1.562728891 0)
(10.56232277 -1.540264843 0)
(10.7806059 -1.517259086 0)
(10.98637871 -1.493686036 0)
(11.18035776 -1.469452656 0)
(11.36321865 -1.444443421 0)
(11.53559835 -1.418536992 0)
(11.69809738 -1.391566359 0)
(11.85128191 -1.363335987 0)
(11.99568568 -1.333602317 0)
(12.13181188 -1.302051663 0)
(12.2601349 -1.268202323 0)
(12.38110195 -1.231453534 0)
(12.49513462 -1.190746131 0)
(12.60263035 -1.144414466 0)
(12.70396381 -1.088666428 0)
(12.79948823 -1.013155896 0)
(12.88953656 -0.8738149909 0)
(12.97442269 -0.4493053754 0)
(0.5485087014 -2.093756466 0)
(1.251968955 -2.08834323 0)
(1.986601209 -2.078650751 0)
(2.688890665 -2.06616413 0)
(3.354061673 -2.051995173 0)
(3.982478266 -2.037007536 0)
(4.575584852 -2.021896819 0)
(5.135103592 -2.007349997 0)
(5.662803818 -1.99426063 0)
(6.16042135 -1.984349484 0)
(6.629627454 -1.969629762 0)
(7.072017004 -1.94147462 0)
(7.489104886 -1.915915075 0)
(7.882326213 -1.892537585 0)
(8.253038375 -1.869954019 0)
(8.602523972 -1.847571786 0)
(8.93199414 -1.825088363 0)
(9.242592032 -1.802424187 0)
(9.5353963 -1.779466109 0)
(9.811424516 -1.75620663 0)
(10.07163647 -1.732546715 0)
(10.31693735 -1.708459161 0)
(10.54818076 -1.683900258 0)
(10.76617163 -1.658749129 0)
(10.97166893 -1.632977804 0)
(11.16538826 -1.606484571 0)
(11.34800432 -1.579143133 0)
(11.52015321 -1.550820833 0)
(11.68243468 -1.521335088 0)
(11.8354141 -1.490472129 0)
(11.97962453 -1.457965684 0)
(12.11556847 -1.423472814 0)
(12.24371968 -1.386466898 0)
(12.36452476 -1.346291148 0)
(12.47840475 -1.301787629 0)
(12.58575655 -1.251135363 0)
(12.68695434 -1.190188614 0)
(12.78235086 -1.107636445 0)
(12.87227862 -0.9553014828 0)
(12.9570511 -0.4912047697 0)
(0.5477062254 -2.276554847 0)
(1.250137307 -2.270669001 0)
(1.983694784 -2.260130307 0)
(2.68495678 -2.246553523 0)
(3.349154633 -2.231147525 0)
(3.976651845 -2.214851371 0)
(4.568890707 -2.198421392 0)
(5.127590863 -2.182604538 0)
(5.654519056 -2.168372386 0)
(6.151408567 -2.157595933 0)
(6.619928216 -2.141591085 0)
(7.061670543 -2.110977819 0)
(7.47814822 -2.083186761 0)
(7.870794259 -2.057768266 0)
(8.240964064 -2.033213009 0)
(8.589938358 -2.008876664 0)
(8.918926507 -1.984430294 0)
(9.229069989 -1.95978739 0)
(9.521445881 -1.934824924 0)
(9.797070264 -1.909534744 0)
(10.05690152 -1.883809166 0)
(10.30184352 -1.857618614 0)
(10.53274862 -1.830915561 0)
(10.75042057 -1.803568577 0)
(10.95561723 -1.77554725 0)
(11.14905314 -1.746740988 0)
(11.33140203 -1.717012466 0)
(11.50329907 -1.686217448 0)
(11.66534311 -1.654157408 0)
(11.81809872 -1.620599914 0)
(11.96209817 -1.585255448 0)
(12.09784323 -1.547751129 0)
(12.22580695 -1.507514359 0)
(12.34643529 -1.463831008 0)
(12.46014867 -1.415442046 0)
(12.56734341 -1.360367513 0)
(12.66839315 -1.294099721 0)
(12.7636501 -1.204340217 0)
(12.8534463 -1.038705435 0)
(12.93809475 -0.5340900995 0)
(0.5468263663 -2.463654661 0)
(1.248129032 -2.457285084 0)
(1.98050809 -2.445880261 0)
(2.680643549 -2.431187663 0)
(3.343774405 -2.414515515 0)
(3.970263578 -2.396880053 0)
(4.561551042 -2.379099768 0)
(5.119353678 -2.361982998 0)
(5.64543539 -2.346581169 0)
(6.141526676 -2.334919048 0)
(6.609293675 -2.317598834 0)
(7.050326368 -2.284469601 0)
(7.466134997 -2.254394521 0)
(7.858150272 -2.226886994 0)
(8.22772542 -2.200313651 0)
(8.576139107 -2.173977211 0)
(8.904598755 -2.147521703 0)
(9.214244009 -2.120853509 0)
(9.506150216 -2.093839491 0)
(9.781331824 -2.066470824 0)
(10.04074568 -2.038630977 0)
(10.28529419 -2.010287941 0)
(10.51582836 -1.981390284 0)
(10.73315063 -1.951795774 0)
(10.93801764 -1.9214715 0)
(11.13114281 -1.890297781 0)
(11.31319877 -1.858126006 0)
(11.48481967 -1.824800083 0)
(11.64660339 -1.790105172 0)
(11.79911362 -1.75378974 0)
(11.94288173 -1.715540471 0)
(12.07840872 -1.67495384 0)
(12.20616688 -1.63141019 0)
(12.32660144 -1.584136701 0)
(12.44013214 -1.531770868 0)
(12.54715469 -1.472170006 0)
(12.64804209 -1.400455962 0)
(12.74314602 -1.303319528 0)
(12.83279796 -1.124071968 0)
(12.91731043 -0.577984565 0)
(0.5458782059 -2.655157124 0)
(1.245964859 -2.648292434 0)
(1.977074021 -2.636001102 0)
(2.675995492 -2.620166433 0)
(3.337976524 -2.602198341 0)
(3.963379406 -2.583192057 0)
(4.553641617 -2.564029691 0)
(5.110477061 -2.545582417 0)
(5.635646583 -2.528983387 0)
(6.130877679 -2.516414757 0)
(6.597833601 -2.497748224 0)
(7.038101573 -2.462043821 0)
(7.453189218 -2.429630974 0)
(7.844524765 -2.399985259 0)
(8.213459094 -2.371346341 0)
(8.561268655 -2.342962742 0)
(8.889158776 -2.31445082 0)
(9.198267126 -2.28570968 0)
(9.489667187 -2.256595833 0)
(9.764371648 -2.227099772 0)
(10.0233357 -2.197095903 0)
(10.26746018 -2.166549734 0)
(10.49759462 -2.135405831 0)
(10.71454006 -2.103510909 0)
(10.91905185 -2.070829497 0)
(11.11184216 -2.037232612 0)
(11.29358244 -2.002560091 0)
(11.46490576 -1.96664371 0)
(11.62640896 -1.929251927 0)
(11.77865474 -1.890113658 0)
(11.92217357 -1.848891233 0)
(12.05746557 -1.805149761 0)
(12.1850022 -1.758221417 0)
(12.30522794 -1.70727331 0)
(12.41856179 -1.650837026 0)
(12.52539876 -1.586603326 0)
(12.62611123 -1.509314874 0)
(12.72105025 -1.404627923 0)
(12.81054675 -1.211447262 0)
(12.89491268 -0.6229119121 0)
(0.5448533866 -2.851165836 0)
(1.243625713 -2.843794381 0)
(1.973362308 -2.83059568 0)
(2.670971639 -2.813592065 0)
(3.331709883 -2.794297536 0)
(3.955938648 -2.773888171 0)
(4.545092714 -2.753311204 0)
(5.100882767 -2.733502117 0)
(5.625066348 -2.715677715 0)
(6.119367709 -2.702181245 0)
(6.585446979 -2.682136714 0)
(7.024888402 -2.643796544 0)
(7.43919677 -2.608990919 0)
(7.829797633 -2.577156701 0)
(8.198039333 -2.546403605 0)
(8.545195925 -2.515924675 0)
(8.872470472 -2.485307949 0)
(9.180998509 -2.454445083 0)
(9.471851502 -2.423181997 0)
(9.746040239 -2.391508481 0)
(10.00451812 -2.359289671 0)
(10.24818428 -2.326488526 0)
(10.47788667 -2.293045521 0)
(10.69442483 -2.258796055 0)
(10.89855267 -2.22370204 0)
(11.09098104 -2.18762497 0)
(11.27238012 -2.150392858 0)
(11.4433818 -2.111825061 0)
(11.60458181 -2.071672946 0)
(11.75654176 -2.029645416 0)
(11.89979116 -1.985379874 0)
(12.03482916 -1.938409324 0)
(12.16212636 -1.888016642 0)
(12.28212638 -1.833307449 0)
(12.39524746 -1.772704931 0)
(12.50188386 -1.703729379 0)
(12.60240726 -1.620735348 0)
(12.69716804 -1.508320209 0)
(12.78649652 -1.300878586 0)
(12.87070407 -0.6688964455 0)
(0.543755569 -3.051786834 0)
(1.241119949 -3.043896689 0)
(1.969386207 -3.029769268 0)
(2.665589935 -3.011569201 0)
(3.324996867 -2.990917021 0)
(3.947967882 -2.969071561 0)
(4.53593487 -2.947046704 0)
(5.090605069 -2.92584376 0)
(5.61373248 -2.906765152 0)
(6.10703788 -2.89231901 0)
(6.572178053 -2.870864054 0)
(7.010734051 -2.829826095 0)
(7.424207636 -2.792571388 0)
(7.814021482 -2.75849717 0)
(8.181521217 -2.725580146 0)
(8.527978327 -2.69295658 0)
(8.854593454 -2.660185521 0)
(9.162499842 -2.627151004 0)
(9.452766799 -2.593688105 0)
(9.726403077 -2.559785896 0)
(9.98436015 -2.525300024 0)
(10.22753536 -2.490190841 0)
(10.45677492 -2.454394635 0)
(10.67287678 -2.417735221 0)
(10.87659333 -2.380171831 0)
(11.06863397 -2.341556214 0)
(11.24966756 -2.301704281 0)
(11.42032469 -2.260422679 0)
(11.58119989 -2.217445279 0)
(11.73285367 -2.1724605 0)
(11.87581443 -2.125080233 0)
(12.01058035 -2.074804621 0)
(12.13762106 -2.020866081 0)
(12.25737929 -1.962307301 0)
(12.37027245 -1.897440514 0)
(12.47669399 -1.823611528 0)
(12.57701484 -1.734777659 0)
(12.67158469 -1.61445248 0)
(12.76073318 -1.392414321 0)
(12.84477106 -0.715963042 0)
(0.5425826684 -3.257128649 0)
(1.238442808 -3.24870761 0)
(1.965138169 -3.233629614 0)
(2.65984016 -3.214204942 0)
(3.317824727 -3.192163164 0)
(3.939451971 -3.168847815 0)
(4.526150692 -3.145341 0)
(5.079624448 -3.122711399 0)
(5.601623453 -3.102349073 0)
(6.093864775 -3.08693091 0)
(6.558001624 -3.064032341 0)
(6.995611641 -3.020233112 0)
(7.408193348 -2.980471693 0)
(7.797166351 -2.944104765 0)
(8.163873376 -2.908972894 0)
(8.509583166 -2.874154226 0)
(8.835493772 -2.839178142 0)
(9.142735994 -2.803920872 0)
(9.432376835 -2.768206397 0)
(9.70542287 -2.732023052 0)
(9.962823519 -2.695216771 0)
(10.20547419 -2.65774524 0)
(10.43421927 -2.619540458 0)
(10.649855 -2.580414387 0)
(10.85313212 -2.540323516 0)
(11.04475852 -2.499109617 0)
(11.22540162 -2.456576217 0)
(11.39569063 -2.412516951 0)
(11.55621882 -2.366647783 0)
(11.70754547 -2.318636169 0)
(11.85019787 -2.268067885 0)
(11.98467309 -2.21440944 0)
(12.11143976 -2.156841603 0)
(12.23093968 -2.094342651 0)
(12.34358932 -2.025111253 0)
(12.4497813 -1.946314627 0)
(12.54988576 -1.851503503 0)
(12.64425162 -1.723082151 0)
(12.73320781 -1.486103985 0)
(12.81706442 -0.7641371639 0)
(0.5413355234 -3.467302366 0)
(1.235596204 -3.458337941 0)
(1.960621231 -3.442287002 0)
(2.653726426 -3.421608909 0)
(3.310198592 -3.398144834 0)
(3.930397004 -3.373325009 0)
(4.515747178 -3.348301362 0)
(5.067948755 -3.324211534 0)
(5.588747928 -3.302535282 0)
(6.079857817 -3.286122227 0)
(6.542927831 -3.261746075 0)
(6.979531986 -3.2151206 0)
(7.39116536 -3.172793484 0)
(7.779244295 -3.134079897 0)
(8.145108431 -3.096681061 0)
(8.490023595 -3.059615638 0)
(8.815185084 -3.022382642 0)
(9.1217211 -2.984850315 0)
(9.410696191 -2.946831281 0)
(9.68311462 -2.908313123 0)
(9.939923625 -2.869131832 0)
(10.18201656 -2.829242364 0)
(10.41023586 -2.788572331 0)
(10.62537594 -2.746921561 0)
(10.82818582 -2.704243734 0)
(11.01937177 -2.660370413 0)
(11.19959964 -2.615092447 0)
(11.36949725 -2.568190156 0)
(11.52965645 -2.519361175 0)
(11.68063528 -2.468251501 0)
(11.82295978 -2.414420182 0)
(11.9571259 -2.357299302 0)
(12.0836012 -2.296016769 0)
(12.20282644 -2.229484927 0)
(12.31521715 -2.155786214 0)
(12.42116505 -2.071905055 0)
(12.52103942 -1.970976025 0)
(12.61518837 -1.83426799 0)
(12.7039401 -1.581998263 0)
(12.78760396 -0.8134448719 0)
(0.5400128794 -3.682421686 0)
(1.232577275 -3.672901087 0)
(1.955830849 -3.655854312 0)
(2.647242582 -3.633893303 0)
(3.302110791 -3.608973463 0)
(3.920793874 -3.58261376 0)
(4.504713863 -3.556037589 0)
(5.055566247 -3.530453173 0)
(5.575092952 -3.507432077 0)
(6.065002913 -3.490000719 0)
(6.526941509 -3.464112215 0)
(6.96247891 -3.41459399 0)
(7.373106541 -3.369640803 0)
(7.760237284 -3.328525337 0)
(8.125207505 -3.288806192 0)
(8.469279938 -3.249441147 0)
(8.793646961 -3.20989813 0)
(9.099434018 -3.170037213 0)
(9.387703057 -3.129659391 0)
(9.659455887 -3.088751479 0)
(9.915637431 -3.047139292 0)
(10.15713886 -3.004774991 0)
(10.38480055 -2.961581696 0)
(10.59941498 -2.917346818 0)
(10.80172934 -2.872021162 0)
(10.99244816 -2.825425841 0)
(11.17223568 -2.777338726 0)
(11.34171818 -2.72752651 0)
(11.50148607 -2.675668068 0)
(11.65209601 -2.621387434 0)
(11.79407276 -2.564216297 0)
(11.92791108 -2.503551509 0)
(12.05407736 -2.438466867 0)
(12.1730113 -2.36780724 0)
(12.28512741 -2.289536091 0)
(12.39081644 -2.200450754 0)
(12.49044679 -2.093259858 0)
(12.58436571 -1.948070146 0)
(12.67290059 -1.680149031 0)
(12.75636003 -0.8639128405 0)
(0.5386181026 -3.902602982 0)
(1.229393702 -3.892513123 0)
(1.950779215 -3.874447078 0)
(2.640405129 -3.851172965 0)
(3.293581906 -3.824763105 0)
(3.910667018 -3.796827288 0)
(4.493078825 -3.768662061 0)
(5.042508435 -3.741547888 0)
(5.560693277 -3.717150303 0)
(6.049337869 -3.698676679 0)
(6.510083343 -3.671240237 0)
(6.944495813 -3.618761192 0)
(7.354062851 -3.571120141 0)
(7.74019369 -3.527546276 0)
(8.104221245 -3.485452224 0)
(8.447404987 -3.443733443 0)
(8.770934216 -3.40182605 0)
(9.075931468 -3.359581748 0)
(9.363455949 -3.316789634 0)
(9.63450688 -3.273435734 0)
(9.890026744 -3.229335449 0)
(10.1309044 -3.184438079 0)
(10.35797808 -3.138662149 0)
(10.57203819 -3.091782355 0)
(10.77383 -3.043746563 0)
(10.96405622 -2.99436519 0)
(11.14337938 -2.943402826 0)
(11.31242412 -2.890612212 0)
(11.47177936 -2.835653022 0)
(11.62200029 -2.778126812 0)
(11.76361034 -2.717537269 0)
(11.89710298 -2.653245179 0)
(12.02294339 -2.584268962 0)
(12.14157014 -2.509384417 0)
(12.25339666 -2.426433238 0)
(12.35881272 -2.332021264 0)
(12.45818573 -2.218421153 0)
(12.55186208 -2.064550182 0)
(12.64016828 -1.780609386 0)
(12.72341216 -0.915568372 0)
(0.5371509651 -4.127965371 0)
(1.226044966 -4.117292855 0)
(1.945465503 -4.098183556 0)
(2.633212951 -4.07356544 0)
(3.284610545 -4.045630499 0)
(3.900014784 -4.016081481 0)
(4.480840164 -3.986289805 0)
(5.028773187 -3.957609879 0)
(5.545546549 -3.931803414 0)
(6.032860127 -3.912263 0)
(6.49235058 -3.883242193 0)
(6.925579757 -3.827732658 0)
(7.334031178 -3.777340494 0)
(7.719110239 -3.731250383 0)
(8.082146222 -3.686725538 0)
(8.424395169 -3.642597636 0)
(8.747043139 -3.59827023 0)
(9.051209612 -3.553586459 0)
(9.337950907 -3.508323243 0)
(9.608263524 -3.462465799 0)
(9.863087379 -3.415818869 0)
(10.10330892 -3.368328825 0)
(10.32976407 -3.319909486 0)
(10.5432411 -3.270322539 0)
(10.74448325 -3.21951284 0)
(10.93419132 -3.167279856 0)
(11.11302602 -3.113374585 0)
(11.2816103 -3.057535487 0)
(11.44053147 -2.999402586 0)
(11.59034322 -2.938554428 0)
(11.73156754 -2.87446604 0)
(11.86469655 -2.806461295 0)
(11.99019419 -2.73350193 0)
(12.10849781 -2.654293051 0)
(12.22001973 -2.566551716 0)
(12.32514865 -2.466687763 0)
(12.42425098 -2.346527623 0)
(12.51767216 -2.183771112 0)
(12.60573783 -1.883433677 0)
(12.68875496 -0.9684394113 0)
(0.5356189702 -4.358630766 0)
(1.222548194 -4.347361884 0)
(1.93991689 -4.327184782 0)
(2.625702829 -4.301191037 0)
(3.275242589 -4.271695127 0)
(3.888891649 -4.240494948 0)
(4.468060471 -4.209038552 0)
(5.014430748 -4.178756028 0)
(5.529730234 -4.151507531 0)
(6.015653956 -4.130875224 0)
(6.473833908 -4.100232772 0)
(6.905827483 -4.041621435 0)
(7.31311397 -3.988413422 0)
(7.697094756 -3.939747855 0)
(8.059095333 -3.892735019 0)
(8.400368161 -3.846141307 0)
(8.722095915 -3.799336942 0)
(9.025394882 -3.7521563 0)
(9.311318369 -3.704363833 0)
(9.580860035 -3.655943934 0)
(9.834957113 -3.606690433 0)
(10.07449352 -3.556546707 0)
(10.30030281 -3.505421758 0)
(10.51317098 -3.453063956 0)
(10.71383918 -3.399415076 0)
(10.90300618 -3.344263381 0)
(11.08133083 -3.287345952 0)
(11.2494343 -3.228386637 0)
(11.40790222 -3.167005345 0)
(11.55728669 -3.10275707 0)
(11.69810823 -3.035087505 0)
(11.83085755 -2.963282742 0)
(11.95599725 -2.886246502 0)
(12.07396347 -2.802611532 0)
(12.18516732 -2.709967325 0)
(12.2899964 -2.604523103 0)
(12.38881608 -2.477648568 0)
(12.48197082 -2.305797433 0)